 argument  1 = frequences.nw



============================== echo of input deck ==============================
echo

start molecule

title "Título"
memory 8000 mb
charge 0

geometry units angstroms print xyz autosym
   O      0.2672100000   -0.2505700000    0.2411800000
   H      0.5536293646    0.4280420604   -0.3587779956
   H      2.0844049454   -0.7237858772    0.2411792129
end

basis
  * library 6-31G*
end

dft
  xc b3lyp
  mult 1
end

task dft optimize      # Optimización geométrica
task dft energy        # Energía de un solo punto
task dft freq		# Frecuencias vibracionales



================================================================================


                                         
                                         


             Northwest Computational Chemistry Package (NWChem) 7.0.2
             --------------------------------------------------------


                    Environmental Molecular Sciences Laboratory
                       Pacific Northwest National Laboratory
                                Richland, WA 99352

                              Copyright (c) 1994-2020
                       Pacific Northwest National Laboratory
                            Battelle Memorial Institute

             NWChem is an open-source computational chemistry package
                        distributed under the terms of the
                      Educational Community License (ECL) 2.0
             A copy of the license is included with this distribution
                              in the LICENSE.TXT file

                                  ACKNOWLEDGMENT
                                  --------------

            This software and its documentation were developed at the
            EMSL at Pacific Northwest National Laboratory, a multiprogram
            national laboratory, operated for the U.S. Department of Energy
            by Battelle under Contract Number DE-AC05-76RL01830. Support
            for this work was provided by the Department of Energy Office
            of Biological and Environmental Research, Office of Basic
            Energy Sciences, and the Office of Advanced Scientific Computing.


           Job information
           ---------------

    hostname        = OMEN-HP-Laptop-16-c0xxx
    program         = nwchem
    date            = Thu Aug 14 22:51:57 2025

    compiled        = Sat_Apr_09_17:12:10_2022
    source          = /build/nwchem-f1f4gx/nwchem-7.0.2/build-openmpi
    nwchem branch   = 7.0.2
    nwchem revision = N/A
    ga revision     = 5.8.1
    use scalapack   = T
    input           = frequences.nw
    prefix          = molecule.
    data base       = ./molecule.db
    status          = startup
    nproc           =        1
    time left       =     -1s



           Memory information
           ------------------

    heap     =  262143998 doubles =   2000.0 Mbytes
    stack    =  262143995 doubles =   2000.0 Mbytes
    global   =  524288000 doubles =   4000.0 Mbytes (distinct from heap & stack)
    total    = 1048575993 doubles =   8000.0 Mbytes
    verify   = yes
    hardfail = no 


           Directory information
           ---------------------

  0 permanent = .
  0 scratch   = .




                                NWChem Input Module
                                -------------------


                                      Título
                                      -------

 Scaling coordinates for geometry "geometry" by  1.889725989
 (inverse scale =  0.529177249)

 CS  symmetry detected

          ------
          auto-z
          ------
  autoz: The atoms group into disjoint clusters
 cluster   1:    1    2
 cluster   2:    3
 Connecting clusters   1   2 via atoms    1    3 r = 1.88
  autoz: regenerating connections with new bonds
  no constraints, skipping    0.0000000000000000     
  no constraints, skipping    0.0000000000000000     


                             Geometry "geometry" -> ""
                             -------------------------

 Output coordinates in angstroms (scale by  1.889725989 to convert to a.u.)

  No.       Tag          Charge          X              Y              Z
 ---- ---------------- ---------- -------------- -------------- --------------
    1 O                    8.0000    -0.09477214     0.19822097     0.00000000
    2 H                    1.0000     0.84947242     0.09380746     0.00000000
    3 H                    1.0000    -0.09129530    -1.67957525     0.00000000

      Atomic Mass 
      ----------- 

      O                 15.994910
      H                  1.007825


 Effective nuclear repulsion energy (a.u.)       6.9742907168

            Nuclear Dipole moment (a.u.) 
            ----------------------------
        X                 Y               Z
 ---------------- ---------------- ----------------
     0.0000000000     0.0000000000     0.0000000000

      Symmetry information
      --------------------

 Group name             Cs        
 Group number              2
 Group order               2
 No. of unique centers     3

      Symmetry unique atoms

     1    2    3



                                Z-matrix (autoz)
                                -------- 

 Units are Angstrom for bonds and degrees for angles

      Type          Name      I     J     K     L     M      Value
      ----------- --------  ----- ----- ----- ----- ----- ----------
    1 Stretch                  1     3                       1.87780
    2 Stretch                  1     2                       0.95000
    3 Bend                     2     1     3                83.58385


            XYZ format geometry
            -------------------
     3
 geometry
 O                    -0.09477214     0.19822097     0.00000000
 H                     0.84947242     0.09380746     0.00000000
 H                    -0.09129530    -1.67957525     0.00000000

 ==============================================================================
                                internuclear distances
 ------------------------------------------------------------------------------
       center one      |      center two      | atomic units |  angstroms
 ------------------------------------------------------------------------------
    2 H                |   1 O                |     1.79524  |     0.95000
 ------------------------------------------------------------------------------
                         number of included internuclear distances:          1
 ==============================================================================





 Summary of "ao basis" -> "" (cartesian)
 ------------------------------------------------------------------------------
       Tag                 Description            Shells   Functions and Types
 ---------------- ------------------------------  ------  ---------------------
 *                           6-31G*                   on all atoms 




                           NWChem Geometry Optimization
                           ----------------------------




                                      Título


  no constraints, skipping    0.0000000000000000     
 maximum gradient threshold         (gmax) =   0.000450
 rms gradient threshold             (grms) =   0.000300
 maximum cartesian step threshold   (xmax) =   0.001800
 rms cartesian step threshold       (xrms) =   0.001200
 fixed trust radius                (trust) =   0.300000
 maximum step size to saddle      (sadstp) =   0.100000
 energy precision                  (eprec) =   5.0D-06
 maximum number of steps          (nptopt) =   20
 initial hessian option           (inhess) =    0
 line search option               (linopt) =    1
 hessian update option            (modupd) =    1
 saddle point option              (modsad) =    0
 initial eigen-mode to follow     (moddir) =    0
 initial variable to follow       (vardir) =    0
 follow first negative mode     (firstneg) =    T
 apply conjugacy                    (opcg) =    F
 source of zmatrix                         =   autoz   


          -------------------
          Energy Minimization
          -------------------


 Names of Z-matrix variables 
    1              2              3         

 Variables with the same non-blank name are constrained to be equal


 Using old Hessian from previous optimization

          --------
          Step   0
          --------


                         Geometry "geometry" -> "geometry"
                         ---------------------------------

 Output coordinates in angstroms (scale by  1.889725989 to convert to a.u.)

  No.       Tag          Charge          X              Y              Z
 ---- ---------------- ---------- -------------- -------------- --------------
    1 O                    8.0000    -0.09477214     0.19822097     0.00000000
    2 H                    1.0000     0.84947242     0.09380746     0.00000000
    3 H                    1.0000    -0.09129530    -1.67957525     0.00000000

      Atomic Mass 
      ----------- 

      O                 15.994910
      H                  1.007825


 Effective nuclear repulsion energy (a.u.)       6.9742907168

            Nuclear Dipole moment (a.u.) 
            ----------------------------
        X                 Y               Z
 ---------------- ---------------- ----------------
     0.0000000000     0.0000000000     0.0000000000

      Symmetry information
      --------------------

 Group name             Cs        
 Group number              2
 Group order               2
 No. of unique centers     3

      Symmetry unique atoms

     1    2    3


                                 NWChem DFT Module
                                 -----------------


                                      Título


                      Basis "ao basis" -> "ao basis" (cartesian)
                      -----
  O (Oxygen)
  ----------
            Exponent  Coefficients 
       -------------- ---------------------------------------------------------
  1 S  5.48467170E+03  0.001831
  1 S  8.25234950E+02  0.013950
  1 S  1.88046960E+02  0.068445
  1 S  5.29645000E+01  0.232714
  1 S  1.68975700E+01  0.470193
  1 S  5.79963530E+00  0.358521

  2 S  1.55396160E+01 -0.110778
  2 S  3.59993360E+00 -0.148026
  2 S  1.01376180E+00  1.130767

  3 P  1.55396160E+01  0.070874
  3 P  3.59993360E+00  0.339753
  3 P  1.01376180E+00  0.727159

  4 S  2.70005800E-01  1.000000

  5 P  2.70005800E-01  1.000000

  6 D  8.00000000E-01  1.000000

  H (Hydrogen)
  ------------
            Exponent  Coefficients 
       -------------- ---------------------------------------------------------
  1 S  1.87311370E+01  0.033495
  1 S  2.82539370E+00  0.234727
  1 S  6.40121700E-01  0.813757

  2 S  1.61277800E-01  1.000000



 Summary of "ao basis" -> "ao basis" (cartesian)
 ------------------------------------------------------------------------------
       Tag                 Description            Shells   Functions and Types
 ---------------- ------------------------------  ------  ---------------------
 O                           6-31G*                  6       15   3s2p1d
 H                           6-31G*                  2        2   2s




 Summary of "ao basis" -> "ao basis" (cartesian)
 ------------------------------------------------------------------------------
       Tag                 Description            Shells   Functions and Types
 ---------------- ------------------------------  ------  ---------------------
 O                           6-31G*                  6       15   3s2p1d
 H                           6-31G*                  2        2   2s


      Symmetry analysis of basis
      --------------------------

        a'         15
        a"          4

  Caching 1-el integrals 

            General Information
            -------------------
          SCF calculation type: DFT
          Wavefunction type:  closed shell.
          No. of atoms     :     3
          No. of electrons :    10
           Alpha electrons :     5
            Beta electrons :     5
          Charge           :     0
          Spin multiplicity:     1
          Use of symmetry is: on ; symmetry adaption is: on 
          Maximum number of iterations:  30
          AO basis - number of functions:    19
                     number of shells:    10
          Convergence on energy requested:  1.00D-06
          Convergence on density requested:  1.00D-05
          Convergence on gradient requested:  5.00D-04

              XC Information
              --------------
                         B3LYP Method XC Potential
                     Hartree-Fock (Exact) Exchange  0.200          
                        Slater Exchange Functional  0.800 local    
                    Becke 1988 Exchange Functional  0.720 non-local
              Lee-Yang-Parr Correlation Functional  0.810          
                  VWN I RPA Correlation Functional  0.190 local    

             Grid Information
             ----------------
          Grid used for XC integration:  medium    
          Radial quadrature: Mura-Knowles        
          Angular quadrature: Lebedev. 
          Tag              B.-S. Rad. Rad. Pts. Rad. Cut. Ang. Pts.
          ---              ---------- --------- --------- ---------
          O                   0.60       49           6.0       434
          H                   0.35       45           7.0       434
          Grid pruning is: on 
          Number of quadrature shells:   139
          Spatial weights used:  Erf1

          Convergence Information
          -----------------------
          Convergence aids based upon iterative change in 
          total energy or number of iterations. 
          Levelshifting, if invoked, occurs when the 
          HOMO/LUMO gap drops below (HL_TOL):  1.00D-02
          DIIS, if invoked, will attempt to extrapolate 
          using up to (NFOCK): 10 stored Fock matrices.

                    Damping( 0%)  Levelshifting(0.5)       DIIS
                  --------------- ------------------- ---------------
          dE  on:    start            ASAP                start   
          dE off:    2 iters         30 iters            30 iters 


      Screening Tolerance Information
      -------------------------------
          Density screening/tol_rho:  1.00D-10
          AO Gaussian exp screening on grid/accAOfunc:  14
          CD Gaussian exp screening on grid/accCDfunc:  20
          XC Gaussian exp screening on grid/accXCfunc:  20
          Schwarz screening/accCoul:  1.00D-08


      Superposition of Atomic Density Guess
      -------------------------------------

 Sum of atomic energies:         -75.75081731

      Non-variational initial energy
      ------------------------------

 Total energy =     -75.463363
 1-e energy   =    -117.698652
 2-e energy   =      35.260998
 HOMO         =      -0.423151
 LUMO         =      -0.135187


      Symmetry analysis of molecular orbitals - initial
      -------------------------------------------------

  Numbering of irreducible representations: 

     1 a'          2 a"      

  Orbital symmetries:

     1 a'          2 a'          3 a'          4 a'          5 a"      
     6 a'          7 a'          8 a'          9 a'         10 a'      
    11 a"         12 a'         13 a'         14 a'         15 a"      

   Time after variat. SCF:      0.1
   Time prior to 1st pass:      0.1

 #quartets = 1.540D+03 #integrals = 8.932D+03 #direct =  0.0% #cached =100.0%


 Integral file          = ./molecule.aoints.0
 Record size in doubles =  65536        No. of integs per rec  =  43688
 Max. records in memory =      2        Max. records in file   =  48008
 No. of bits per label  =      8        No. of bits per value  =     64


 Grid_pts file          = ./molecule.gridpts.0
 Record size in doubles =  12289        No. of grid_pts per rec  =   3070
 Max. records in memory =     23        Max. recs in file   =    256028


           Memory utilization after 1st SCF pass: 
           Heap Space remaining (MW):      261.73           261728638
          Stack Space remaining (MW):      262.14           262143764

   convergence    iter        energy       DeltaE   RMS-Dens  Diis-err    time
 ---------------- ----- ----------------- --------- --------- ---------  ------
 d= 0,ls=0.0,diis     1    -76.0813278522 -8.31D+01  1.09D-01  8.26D-01     0.2
 d= 0,ls=0.0,diis     2    -75.4477132859  6.34D-01  7.46D-02  4.95D+00     0.2
 d= 0,ls=0.0,diis     3    -76.2418726254 -7.94D-01  4.89D-03  4.77D-02     0.2
 d= 0,ls=0.0,diis     4    -76.2473348680 -5.46D-03  2.31D-03  6.49D-03     0.2
 d= 0,ls=0.0,diis     5    -76.2482398107 -9.05D-04  3.07D-04  6.30D-05     0.2
  Resetting Diis
 d= 0,ls=0.0,diis     6    -76.2482437565 -3.95D-06  1.48D-04  1.81D-05     0.2
 d= 0,ls=0.0,diis     7    -76.2482464789 -2.72D-06  7.64D-05  3.07D-07     0.3
 d= 0,ls=0.0,diis     8    -76.2482459172  5.62D-07  5.49D-05  4.55D-06     0.3
 d= 0,ls=0.0,diis     9    -76.2482465261 -6.09D-07  4.04D-06  1.46D-08     0.3


         Total DFT energy =      -76.248246526069
      One electron energy =     -118.676002199643
           Coulomb energy =       44.591379256433
    Exchange-Corr. energy =       -9.137914299656
 Nuclear repulsion energy =        6.974290716798

 Numeric. integr. density =       10.000000668306

     Total iterative time =      0.2s



                  Occupations of the irreducible representations
                  ----------------------------------------------

                     irrep           alpha         beta
                     --------     --------     --------
                     a'                4.0          4.0
                     a"                1.0          1.0


                       DFT Final Molecular Orbital Analysis
                       ------------------------------------

 Vector    1  Occ=2.000000D+00  E=-1.918660D+01  Symmetry=a'
              MO Center= -9.5D-02,  2.0D-01, -5.3D-29, r^2= 1.5D-02
   Bfn.  Coefficient  Atom+Function         Bfn.  Coefficient  Atom+Function  
  ----- ------------  ---------------      ----- ------------  ---------------
     1      0.992996  1 O  s                  2      0.026123  1 O  s          

 Vector    2  Occ=2.000000D+00  E=-9.613775D-01  Symmetry=a'
              MO Center=  1.3D-01,  1.6D-01, -2.9D-16, r^2= 4.8D-01
   Bfn.  Coefficient  Atom+Function         Bfn.  Coefficient  Atom+Function  
  ----- ------------  ---------------      ----- ------------  ---------------
     2      0.488329  1 O  s                  6      0.473942  1 O  s          
     1     -0.215828  1 O  s                 16      0.169972  2 H  s          
     3      0.130021  1 O  px                 7      0.059641  1 O  px         

 Vector    3  Occ=2.000000D+00  E=-4.375292D-01  Symmetry=a'
              MO Center= -4.9D-02,  1.8D-01,  6.5D-16, r^2= 7.4D-01
   Bfn.  Coefficient  Atom+Function         Bfn.  Coefficient  Atom+Function  
  ----- ------------  ---------------      ----- ------------  ---------------
     3      0.538587  1 O  px                 6     -0.387924  1 O  s          
     7      0.292899  1 O  px                16      0.268155  2 H  s          
    17      0.192550  2 H  s                  2     -0.169241  1 O  s          
     1      0.085040  1 O  s                 10      0.048512  1 O  dxx        
    19     -0.040490  3 H  s                  4     -0.033054  1 O  py         

 Vector    4  Occ=2.000000D+00  E=-3.445993D-01  Symmetry=a'
              MO Center= -8.2D-02, -5.7D-01,  7.1D-17, r^2= 1.5D+00
   Bfn.  Coefficient  Atom+Function         Bfn.  Coefficient  Atom+Function  
  ----- ------------  ---------------      ----- ------------  ---------------
     4      0.465448  1 O  py                19     -0.397067  3 H  s          
     8      0.334919  1 O  py                18     -0.254907  3 H  s          
     6      0.101706  1 O  s                  2      0.062019  1 O  s          
    11      0.036578  1 O  dxy                3      0.028892  1 O  px         
     1     -0.025388  1 O  s          

 Vector    5  Occ=2.000000D+00  E=-2.945500D-01  Symmetry=a"
              MO Center= -7.8D-02,  1.9D-01, -4.5D-16, r^2= 5.8D-01
   Bfn.  Coefficient  Atom+Function         Bfn.  Coefficient  Atom+Function  
  ----- ------------  ---------------      ----- ------------  ---------------
     5      0.661695  1 O  pz                 9      0.487530  1 O  pz         
    12      0.050479  1 O  dxz        

 Vector    6  Occ=0.000000D+00  E=-1.535049D-01  Symmetry=a'
              MO Center= -7.2D-02, -9.1D-01, -8.1D-18, r^2= 1.8D+00
   Bfn.  Coefficient  Atom+Function         Bfn.  Coefficient  Atom+Function  
  ----- ------------  ---------------      ----- ------------  ---------------
    19      0.608355  3 H  s                  4      0.467025  1 O  py         
     8      0.396690  1 O  py                18      0.310951  3 H  s          
     6     -0.168816  1 O  s                 17      0.081606  2 H  s          
     2     -0.053086  1 O  s                 11      0.034144  1 O  dxy        
     3      0.031814  1 O  px                 1      0.026460  1 O  s          

 Vector    7  Occ=0.000000D+00  E= 1.044947D-01  Symmetry=a'
              MO Center=  1.1D+00,  8.1D-02, -1.3D-17, r^2= 1.6D+00
   Bfn.  Coefficient  Atom+Function         Bfn.  Coefficient  Atom+Function  
  ----- ------------  ---------------      ----- ------------  ---------------
    17      1.593404  2 H  s                  6     -0.988417  1 O  s          
     7     -0.596757  1 O  px                 3     -0.345733  1 O  px         
    19     -0.172645  3 H  s                 16      0.136375  2 H  s          
     2     -0.086442  1 O  s                 18     -0.076999  3 H  s          
     1      0.073057  1 O  s                 15      0.045188  1 O  dzz        

 Vector    8  Occ=0.000000D+00  E= 7.512204D-01  Symmetry=a'
              MO Center= -1.1D-01, -1.6D+00,  2.5D-16, r^2= 1.6D+00
   Bfn.  Coefficient  Atom+Function         Bfn.  Coefficient  Atom+Function  
  ----- ------------  ---------------      ----- ------------  ---------------
    19     -1.241477  3 H  s                 18      1.224812  3 H  s          
     8     -0.336764  1 O  py                 3     -0.238159  1 O  px         
     4      0.155686  1 O  py                 7      0.145731  1 O  px         
    16      0.111138  2 H  s                  6      0.099243  1 O  s          
     2      0.031549  1 O  s                 15     -0.027806  1 O  dzz        

 Vector    9  Occ=0.000000D+00  E= 8.375571D-01  Symmetry=a'
              MO Center=  5.1D-01,  1.6D-01, -6.8D-16, r^2= 1.3D+00
   Bfn.  Coefficient  Atom+Function         Bfn.  Coefficient  Atom+Function  
  ----- ------------  ---------------      ----- ------------  ---------------
    16      1.111331  2 H  s                 17     -0.783236  2 H  s          
     3     -0.384767  1 O  px                19      0.369679  3 H  s          
     4      0.322302  1 O  py                18     -0.282977  3 H  s          
     6     -0.255858  1 O  s                 10      0.236569  1 O  dxx        
     8     -0.226558  1 O  py                 7     -0.134090  1 O  px         

 Vector   10  Occ=0.000000D+00  E= 8.706672D-01  Symmetry=a'
              MO Center= -4.9D-01,  2.6D-01,  1.0D-15, r^2= 1.5D+00
   Bfn.  Coefficient  Atom+Function         Bfn.  Coefficient  Atom+Function  
  ----- ------------  ---------------      ----- ------------  ---------------
     6      1.883661  1 O  s                  2     -1.038048  1 O  s          
     7     -0.630541  1 O  px                 3      0.453363  1 O  px         
    17     -0.435618  2 H  s                 16      0.407026  2 H  s          
    15     -0.362613  1 O  dzz               13     -0.360515  1 O  dyy        
    19     -0.288672  3 H  s                 10     -0.286619  1 O  dxx        

 Vector   11  Occ=0.000000D+00  E= 8.887371D-01  Symmetry=a"
              MO Center= -9.1D-02,  2.0D-01, -2.9D-16, r^2= 1.1D+00
   Bfn.  Coefficient  Atom+Function         Bfn.  Coefficient  Atom+Function  
  ----- ------------  ---------------      ----- ------------  ---------------
     9      1.047590  1 O  pz                 5     -0.947720  1 O  pz         
    12      0.025336  1 O  dxz        

 Vector   12  Occ=0.000000D+00  E= 9.562116D-01  Symmetry=a'
              MO Center= -8.1D-02,  2.5D-03, -2.6D-17, r^2= 1.3D+00
   Bfn.  Coefficient  Atom+Function         Bfn.  Coefficient  Atom+Function  
  ----- ------------  ---------------      ----- ------------  ---------------
     8      1.039864  1 O  py                 4     -0.853640  1 O  py         
    17     -0.407846  2 H  s                  3     -0.404998  1 O  px         
     7      0.391668  1 O  px                19      0.325553  3 H  s          
    16      0.284436  2 H  s                  6     -0.170811  1 O  s          
     2      0.118755  1 O  s                 10      0.100764  1 O  dxx        

 Vector   13  Occ=0.000000D+00  E= 1.123328D+00  Symmetry=a'
              MO Center=  3.6D-01,  6.0D-02, -1.9D-16, r^2= 1.4D+00
   Bfn.  Coefficient  Atom+Function         Bfn.  Coefficient  Atom+Function  
  ----- ------------  ---------------      ----- ------------  ---------------
     6      2.766406  1 O  s                  7      1.380270  1 O  px         
    17     -1.234990  2 H  s                  2     -1.182283  1 O  s          
     3     -0.634521  1 O  px                10     -0.453881  1 O  dxx        
    13     -0.286250  1 O  dyy               15     -0.274897  1 O  dzz        
     8     -0.265492  1 O  py                16     -0.263882  2 H  s          

 Vector   14  Occ=0.000000D+00  E= 1.741179D+00  Symmetry=a'
              MO Center= -1.1D-01,  2.0D-01,  9.4D-19, r^2= 6.1D-01
   Bfn.  Coefficient  Atom+Function         Bfn.  Coefficient  Atom+Function  
  ----- ------------  ---------------      ----- ------------  ---------------
    11      1.692483  1 O  dxy               10      0.185839  1 O  dxx        
    13     -0.178621  1 O  dyy        

 Vector   15  Occ=0.000000D+00  E= 1.764424D+00  Symmetry=a"
              MO Center= -1.2D-01,  2.0D-01,  1.2D-17, r^2= 6.1D-01
   Bfn.  Coefficient  Atom+Function         Bfn.  Coefficient  Atom+Function  
  ----- ------------  ---------------      ----- ------------  ---------------
    12      1.719624  1 O  dxz               14     -0.198938  1 O  dyz        
     9     -0.030097  1 O  pz         

 Vector   16  Occ=0.000000D+00  E= 1.805098D+00  Symmetry=a"
              MO Center= -9.5D-02,  2.0D-01, -6.3D-22, r^2= 6.1D-01
   Bfn.  Coefficient  Atom+Function         Bfn.  Coefficient  Atom+Function  
  ----- ------------  ---------------      ----- ------------  ---------------
    14      1.720539  1 O  dyz               12      0.199260  1 O  dxz        

 Vector   17  Occ=0.000000D+00  E= 1.815140D+00  Symmetry=a'
              MO Center= -9.6D-02,  1.8D-01, -8.0D-17, r^2= 6.4D-01
   Bfn.  Coefficient  Atom+Function         Bfn.  Coefficient  Atom+Function  
  ----- ------------  ---------------      ----- ------------  ---------------
    13      0.890207  1 O  dyy               15     -0.836508  1 O  dzz        
    11      0.179772  1 O  dxy               19     -0.089006  3 H  s          
     8     -0.054456  1 O  py                17      0.045225  2 H  s          
     7     -0.041654  1 O  px                 4      0.033143  1 O  py         
     2     -0.026800  1 O  s          

 Vector   18  Occ=0.000000D+00  E= 2.479498D+00  Symmetry=a'
              MO Center=  5.9D-02,  1.8D-01,  6.6D-19, r^2= 8.3D-01
   Bfn.  Coefficient  Atom+Function         Bfn.  Coefficient  Atom+Function  
  ----- ------------  ---------------      ----- ------------  ---------------
    16      1.289255  2 H  s                 10     -1.104271  1 O  dxx        
     6     -1.077819  1 O  s                  7     -0.843825  1 O  px         
    15      0.708669  1 O  dzz               13      0.637618  1 O  dyy        
    11      0.387548  1 O  dxy                2      0.322444  1 O  s          
     8      0.118901  1 O  py                17      0.104172  2 H  s          

 Vector   19  Occ=0.000000D+00  E= 3.433083D+00  Symmetry=a'
              MO Center= -1.0D-01,  2.0D-01,  7.3D-19, r^2= 9.5D-01
   Bfn.  Coefficient  Atom+Function         Bfn.  Coefficient  Atom+Function  
  ----- ------------  ---------------      ----- ------------  ---------------
     6      3.120326  1 O  s                 15     -1.482828  1 O  dzz        
    10     -1.468909  1 O  dxx               13     -1.446783  1 O  dyy        
    17     -0.632192  2 H  s                  1     -0.442752  1 O  s          
     2      0.427497  1 O  s                  7      0.289266  1 O  px         
    16      0.160511  2 H  s                  3     -0.109510  1 O  px         


 center of mass
 --------------
 x =  -0.07887729 y =   0.16497605 z =   0.00000000

 moments of inertia (a.u.)
 ------------------
          11.938468144732           0.000000000000           0.000000000000
           0.000000000000           3.028026200536           0.000000000000
           0.000000000000           0.000000000000          14.966494345268

     Multipole analysis of the density
     ---------------------------------

     L   x y z        total         alpha         beta         nuclear
     -   - - -        -----         -----         ----         -------
     0   0 0 0     -0.000000     -5.000000     -5.000000     10.000000

     1   1 0 0      0.668260      0.334130      0.334130      0.000000
     1   0 1 0     -0.583899     -0.291950     -0.291950      0.000000
     1   0 0 1      0.000000      0.000000      0.000000      0.000000

     2   2 0 0     -4.341417     -3.602334     -3.602334      2.863252
     2   1 1 0      0.222084     -0.036688     -0.036688      0.295461
     2   1 0 1      0.000000      0.000000      0.000000      0.000000
     2   0 2 0     -3.099881     -7.163842     -7.163842     11.227802
     2   0 1 1      0.000000      0.000000      0.000000      0.000000
     2   0 0 2     -5.737268     -2.868634     -2.868634      0.000000


 Parallel integral file used       1 records with       0 large values


            General Information
            -------------------
          SCF calculation type: DFT
          Wavefunction type:  closed shell.
          No. of atoms     :     3
          No. of electrons :    10
           Alpha electrons :     5
            Beta electrons :     5
          Charge           :     0
          Spin multiplicity:     1
          Use of symmetry is: on ; symmetry adaption is: on 
          Maximum number of iterations:  30
          AO basis - number of functions:    19
                     number of shells:    10
          Convergence on energy requested:  1.00D-06
          Convergence on density requested:  1.00D-05
          Convergence on gradient requested:  5.00D-04

              XC Information
              --------------
                         B3LYP Method XC Potential
                     Hartree-Fock (Exact) Exchange  0.200          
                        Slater Exchange Functional  0.800 local    
                    Becke 1988 Exchange Functional  0.720 non-local
              Lee-Yang-Parr Correlation Functional  0.810          
                  VWN I RPA Correlation Functional  0.190 local    

             Grid Information
             ----------------
          Grid used for XC integration:  medium    
          Radial quadrature: Mura-Knowles        
          Angular quadrature: Lebedev. 
          Tag              B.-S. Rad. Rad. Pts. Rad. Cut. Ang. Pts.
          ---              ---------- --------- --------- ---------
          O                   0.60       49           6.0       434
          H                   0.35       45           7.0       434
          Grid pruning is: on 
          Number of quadrature shells:   139
          Spatial weights used:  Erf1

          Convergence Information
          -----------------------
          Convergence aids based upon iterative change in 
          total energy or number of iterations. 
          Levelshifting, if invoked, occurs when the 
          HOMO/LUMO gap drops below (HL_TOL):  1.00D-02
          DIIS, if invoked, will attempt to extrapolate 
          using up to (NFOCK): 10 stored Fock matrices.

                    Damping( 0%)  Levelshifting(0.5)       DIIS
                  --------------- ------------------- ---------------
          dE  on:    start            ASAP                start   
          dE off:    2 iters         30 iters            30 iters 


      Screening Tolerance Information
      -------------------------------
          Density screening/tol_rho:  1.00D-10
          AO Gaussian exp screening on grid/accAOfunc:  14
          CD Gaussian exp screening on grid/accCDfunc:  20
          XC Gaussian exp screening on grid/accXCfunc:  20
          Schwarz screening/accCoul:  1.00D-08



                            NWChem DFT Gradient Module
                            --------------------------


                                      Título



  charge          =   0.00
  wavefunction    = closed shell

  Using symmetry


                         DFT ENERGY GRADIENTS

    atom               coordinates                        gradient
                 x          y          z           x          y          z
   1 O      -0.179093   0.374583   0.000000    0.026816   0.082030   0.000000
   2 H       1.605270   0.177270   0.000000   -0.030509  -0.003683   0.000000
   3 H      -0.172523  -3.173937   0.000000    0.003692  -0.078347   0.000000

                 ----------------------------------------
                 |  Time  |  1-e(secs)   |  2-e(secs)   |
                 ----------------------------------------
                 |  CPU   |       0.00   |       0.10   |
                 ----------------------------------------
                 |  WALL  |       0.00   |       0.03   |
                 ----------------------------------------
  no constraints, skipping    0.0000000000000000     

@ Step       Energy      Delta E   Gmax     Grms     Xrms     Xmax   Walltime
@ ---- ---------------- -------- -------- -------- -------- -------- --------
@    0     -76.24824653  0.0D+00  0.07835  0.04858  0.00000  0.00000      0.4
                                                                    



                                Z-matrix (autoz)
                                -------- 

 Units are Angstrom for bonds and degrees for angles

      Type          Name      I     J     K     L     M      Value     Gradient
      ----------- --------  ----- ----- ----- ----- ----- ---------- ----------
    1 Stretch                  1     3                       1.87780    0.07835
    2 Stretch                  1     2                       0.95000   -0.02992
    3 Bend                     2     1     3                83.58385   -0.00666

 Restricting large step in mode    1 eval= 1.5D-03 step= 8.4D+00 new= 3.0D-01
  no constraints, skipping    0.0000000000000000     
  no constraints, skipping    0.0000000000000000     
  no constraints, skipping    0.0000000000000000     
  no constraints, skipping    0.0000000000000000     
  no constraints, skipping    0.0000000000000000     

                                 NWChem DFT Module
                                 -----------------


                                      Título




 Summary of "ao basis" -> "ao basis" (cartesian)
 ------------------------------------------------------------------------------
       Tag                 Description            Shells   Functions and Types
 ---------------- ------------------------------  ------  ---------------------
 O                           6-31G*                  6       15   3s2p1d
 H                           6-31G*                  2        2   2s


      Symmetry analysis of basis
      --------------------------

        a'         15
        a"          4

  Caching 1-el integrals 

            General Information
            -------------------
          SCF calculation type: DFT
          Wavefunction type:  closed shell.
          No. of atoms     :     3
          No. of electrons :    10
           Alpha electrons :     5
            Beta electrons :     5
          Charge           :     0
          Spin multiplicity:     1
          Use of symmetry is: on ; symmetry adaption is: on 
          Maximum number of iterations:  30
          AO basis - number of functions:    19
                     number of shells:    10
          Convergence on energy requested:  1.00D-06
          Convergence on density requested:  1.00D-05
          Convergence on gradient requested:  5.00D-04

              XC Information
              --------------
                         B3LYP Method XC Potential
                     Hartree-Fock (Exact) Exchange  0.200          
                        Slater Exchange Functional  0.800 local    
                    Becke 1988 Exchange Functional  0.720 non-local
              Lee-Yang-Parr Correlation Functional  0.810          
                  VWN I RPA Correlation Functional  0.190 local    

             Grid Information
             ----------------
          Grid used for XC integration:  medium    
          Radial quadrature: Mura-Knowles        
          Angular quadrature: Lebedev. 
          Tag              B.-S. Rad. Rad. Pts. Rad. Cut. Ang. Pts.
          ---              ---------- --------- --------- ---------
          O                   0.60       49           6.0       434
          H                   0.35       45           7.0       434
          Grid pruning is: on 
          Number of quadrature shells:   139
          Spatial weights used:  Erf1

          Convergence Information
          -----------------------
          Convergence aids based upon iterative change in 
          total energy or number of iterations. 
          Levelshifting, if invoked, occurs when the 
          HOMO/LUMO gap drops below (HL_TOL):  1.00D-02
          DIIS, if invoked, will attempt to extrapolate 
          using up to (NFOCK): 10 stored Fock matrices.

                    Damping( 0%)  Levelshifting(0.5)       DIIS
                  --------------- ------------------- ---------------
          dE  on:    start            ASAP                start   
          dE off:    2 iters         30 iters            30 iters 


      Screening Tolerance Information
      -------------------------------
          Density screening/tol_rho:  1.00D-10
          AO Gaussian exp screening on grid/accAOfunc:  14
          CD Gaussian exp screening on grid/accCDfunc:  20
          XC Gaussian exp screening on grid/accXCfunc:  20
          Schwarz screening/accCoul:  1.00D-08


 Loading old vectors from job with title :

Título


      Symmetry analysis of molecular orbitals - initial
      -------------------------------------------------

  Numbering of irreducible representations: 

     1 a'          2 a"      

  Orbital symmetries:

     1 a'          2 a'          3 a'          4 a'          5 a"      
     6 a'          7 a'          8 a'          9 a'         10 a'      
    11 a"         12 a'         13 a'         14 a'         15 a"      

   Time after variat. SCF:      0.4
   Time prior to 1st pass:      0.4

 #quartets = 1.540D+03 #integrals = 8.940D+03 #direct =  0.0% #cached =100.0%


 Integral file          = ./molecule.aoints.0
 Record size in doubles =  65536        No. of integs per rec  =  43688
 Max. records in memory =      2        Max. records in file   =  48008
 No. of bits per label  =      8        No. of bits per value  =     64


 Grid_pts file          = ./molecule.gridpts.0
 Record size in doubles =  12289        No. of grid_pts per rec  =   3070
 Max. records in memory =     23        Max. recs in file   =    256028


           Memory utilization after 1st SCF pass: 
           Heap Space remaining (MW):      261.73           261728638
          Stack Space remaining (MW):      262.14           262143764

   convergence    iter        energy       DeltaE   RMS-Dens  Diis-err    time
 ---------------- ----- ----------------- --------- --------- ---------  ------
 d= 0,ls=0.0,diis     1    -76.2564540174 -8.31D+01  6.31D-03  1.24D-02     0.5
 d= 0,ls=0.0,diis     2    -76.2594596991 -3.01D-03  1.26D-03  4.40D-04     0.5
 d= 0,ls=0.0,diis     3    -76.2595255045 -6.58D-05  6.81D-04  2.27D-04     0.5
 d= 0,ls=0.0,diis     4    -76.2595147970  1.07D-05  5.07D-04  2.41D-04     0.5
 d= 0,ls=0.0,diis     5    -76.2595462811 -3.15D-05  9.56D-05  5.75D-06     0.5
 d= 0,ls=0.0,diis     6    -76.2595472301 -9.49D-07  1.31D-05  1.11D-07     0.6
 d= 0,ls=0.0,diis     7    -76.2595472482 -1.81D-08  1.33D-06  3.98D-10     0.6


         Total DFT energy =      -76.259547248214
      One electron energy =     -118.453714414324
           Coulomb energy =       44.495785342705
    Exchange-Corr. energy =       -9.121038603854
 Nuclear repulsion energy =        6.819420427258

 Numeric. integr. density =       10.000001019126

     Total iterative time =      0.2s



                  Occupations of the irreducible representations
                  ----------------------------------------------

                     irrep           alpha         beta
                     --------     --------     --------
                     a'                4.0          4.0
                     a"                1.0          1.0


                       DFT Final Molecular Orbital Analysis
                       ------------------------------------

 Vector    1  Occ=2.000000D+00  E=-1.918717D+01  Symmetry=a'
              MO Center= -1.0D-01,  1.3D-01,  7.8D-31, r^2= 1.5D-02
   Bfn.  Coefficient  Atom+Function         Bfn.  Coefficient  Atom+Function  
  ----- ------------  ---------------      ----- ------------  ---------------
     1      0.993016  1 O  s                  2      0.026076  1 O  s          

 Vector    2  Occ=2.000000D+00  E=-9.449284D-01  Symmetry=a'
              MO Center=  1.0D-01,  1.2D-01, -4.3D-17, r^2= 4.9D-01
   Bfn.  Coefficient  Atom+Function         Bfn.  Coefficient  Atom+Function  
  ----- ------------  ---------------      ----- ------------  ---------------
     2      0.491362  1 O  s                  6      0.490256  1 O  s          
     1     -0.217767  1 O  s                 16      0.154300  2 H  s          
     3      0.117236  1 O  px                 7      0.060055  1 O  px         

 Vector    3  Occ=2.000000D+00  E=-4.308909D-01  Symmetry=a'
              MO Center= -1.2D-02,  8.7D-02,  3.0D-16, r^2= 8.2D-01
   Bfn.  Coefficient  Atom+Function         Bfn.  Coefficient  Atom+Function  
  ----- ------------  ---------------      ----- ------------  ---------------
     3      0.527287  1 O  px                 6     -0.351095  1 O  s          
     7      0.294220  1 O  px                16      0.269588  2 H  s          
    17      0.203109  2 H  s                  2     -0.152374  1 O  s          
    19     -0.077723  3 H  s                  1      0.077135  1 O  s          
     4      0.065400  1 O  py                18     -0.051407  3 H  s          

 Vector    4  Occ=2.000000D+00  E=-3.438960D-01  Symmetry=a'
              MO Center= -1.0D-01, -5.5D-01,  1.4D-16, r^2= 1.5D+00
   Bfn.  Coefficient  Atom+Function         Bfn.  Coefficient  Atom+Function  
  ----- ------------  ---------------      ----- ------------  ---------------
     4      0.465622  1 O  py                19     -0.380067  3 H  s          
     8      0.333226  1 O  py                18     -0.250230  3 H  s          
     6      0.145370  1 O  s                  3     -0.083330  1 O  px         
     2      0.078269  1 O  s                  7     -0.054161  1 O  px         
    17     -0.035668  2 H  s                 11      0.035458  1 O  dxy        

 Vector    5  Occ=2.000000D+00  E=-2.902832D-01  Symmetry=a"
              MO Center= -8.9D-02,  1.3D-01, -6.2D-16, r^2= 5.8D-01
   Bfn.  Coefficient  Atom+Function         Bfn.  Coefficient  Atom+Function  
  ----- ------------  ---------------      ----- ------------  ---------------
     5      0.661248  1 O  pz                 9      0.488110  1 O  pz         
    12      0.047036  1 O  dxz        

 Vector    6  Occ=0.000000D+00  E=-1.400738D-01  Symmetry=a'
              MO Center= -9.9D-02, -9.6D-01,  5.5D-17, r^2= 1.7D+00
   Bfn.  Coefficient  Atom+Function         Bfn.  Coefficient  Atom+Function  
  ----- ------------  ---------------      ----- ------------  ---------------
    19      0.632445  3 H  s                  4      0.464218  1 O  py         
     8      0.402531  1 O  py                18      0.309761  3 H  s          
     6     -0.202532  1 O  s                 17      0.092760  2 H  s          
     2     -0.061542  1 O  s                 11      0.031686  1 O  dxy        
     1      0.031479  1 O  s                  7     -0.028559  1 O  px         

 Vector    7  Occ=0.000000D+00  E= 8.996242D-02  Symmetry=a'
              MO Center=  1.0D+00,  1.6D-01,  2.6D-16, r^2= 1.6D+00
   Bfn.  Coefficient  Atom+Function         Bfn.  Coefficient  Atom+Function  
  ----- ------------  ---------------      ----- ------------  ---------------
    17      1.480749  2 H  s                  6     -0.882201  1 O  s          
     7     -0.588859  1 O  px                 3     -0.364949  1 O  px         
    16      0.156193  2 H  s                 19     -0.140823  3 H  s          
     2     -0.089221  1 O  s                 18     -0.071254  3 H  s          
     1      0.069797  1 O  s                  4     -0.057312  1 O  py         

 Vector    8  Occ=0.000000D+00  E= 7.416482D-01  Symmetry=a'
              MO Center= -4.1D-02, -1.4D+00, -4.7D-16, r^2= 1.9D+00
   Bfn.  Coefficient  Atom+Function         Bfn.  Coefficient  Atom+Function  
  ----- ------------  ---------------      ----- ------------  ---------------
    19     -1.176913  3 H  s                 18      1.148793  3 H  s          
     8     -0.390422  1 O  py                16      0.357456  2 H  s          
     3     -0.275526  1 O  px                 6      0.244306  1 O  s          
     4      0.202688  1 O  py                17     -0.202291  2 H  s          
     7      0.098171  1 O  px                15     -0.062334  1 O  dzz        

 Vector    9  Occ=0.000000D+00  E= 8.046406D-01  Symmetry=a'
              MO Center=  5.8D-01, -1.0D-01,  2.6D-16, r^2= 1.8D+00
   Bfn.  Coefficient  Atom+Function         Bfn.  Coefficient  Atom+Function  
  ----- ------------  ---------------      ----- ------------  ---------------
    16      1.107656  2 H  s                 17     -0.952976  2 H  s          
    19      0.605888  3 H  s                 18     -0.489091  3 H  s          
     3     -0.339315  1 O  px                10      0.199602  1 O  dxx        
     4      0.088564  1 O  py                13     -0.084039  1 O  dyy        
     2     -0.068567  1 O  s                  7     -0.066073  1 O  px         

 Vector   10  Occ=0.000000D+00  E= 8.728035D-01  Symmetry=a'
              MO Center= -5.2D-01,  2.6D-01,  4.1D-15, r^2= 1.4D+00
   Bfn.  Coefficient  Atom+Function         Bfn.  Coefficient  Atom+Function  
  ----- ------------  ---------------      ----- ------------  ---------------
     6      1.937373  1 O  s                  2     -1.045917  1 O  s          
     7     -0.581771  1 O  px                 3      0.499904  1 O  px         
    17     -0.378257  2 H  s                 15     -0.357747  1 O  dzz        
    13     -0.353024  1 O  dyy               10     -0.311313  1 O  dxx        
    19     -0.291458  3 H  s                  4     -0.267582  1 O  py         

 Vector   11  Occ=0.000000D+00  E= 8.904183D-01  Symmetry=a"
              MO Center= -1.0D-01,  1.3D-01, -3.9D-15, r^2= 1.1D+00
   Bfn.  Coefficient  Atom+Function         Bfn.  Coefficient  Atom+Function  
  ----- ------------  ---------------      ----- ------------  ---------------
     9      1.047366  1 O  pz                 5     -0.948038  1 O  pz         
    12      0.025016  1 O  dxz        

 Vector   12  Occ=0.000000D+00  E= 9.658812D-01  Symmetry=a'
              MO Center= -1.5D-01, -5.2D-02,  3.4D-17, r^2= 1.3D+00
   Bfn.  Coefficient  Atom+Function         Bfn.  Coefficient  Atom+Function  
  ----- ------------  ---------------      ----- ------------  ---------------
     8      1.071015  1 O  py                 4     -0.890013  1 O  py         
     7      0.402240  1 O  px                 3     -0.327006  1 O  px         
    17     -0.281402  2 H  s                  6     -0.279873  1 O  s          
    19      0.231811  3 H  s                  2      0.199965  1 O  s          
    18      0.179183  3 H  s                 16      0.099679  2 H  s          

 Vector   13  Occ=0.000000D+00  E= 1.120635D+00  Symmetry=a'
              MO Center=  3.4D-01,  2.3D-02, -7.7D-17, r^2= 1.4D+00
   Bfn.  Coefficient  Atom+Function         Bfn.  Coefficient  Atom+Function  
  ----- ------------  ---------------      ----- ------------  ---------------
     6      2.617643  1 O  s                  7      1.358689  1 O  px         
     2     -1.145356  1 O  s                 17     -1.080434  2 H  s          
     3     -0.646341  1 O  px                10     -0.468222  1 O  dxx        
    16     -0.308164  2 H  s                 13     -0.278159  1 O  dyy        
    15     -0.256044  1 O  dzz               18     -0.171564  3 H  s          

 Vector   14  Occ=0.000000D+00  E= 1.750327D+00  Symmetry=a'
              MO Center= -1.3D-01,  1.4D-01,  2.1D-19, r^2= 6.1D-01
   Bfn.  Coefficient  Atom+Function         Bfn.  Coefficient  Atom+Function  
  ----- ------------  ---------------      ----- ------------  ---------------
    11      1.728224  1 O  dxy               10     -0.054490  1 O  dxx        
     8     -0.041306  1 O  py                13      0.038853  1 O  dyy        

 Vector   15  Occ=0.000000D+00  E= 1.773579D+00  Symmetry=a"
              MO Center= -1.2D-01,  1.3D-01, -3.7D-17, r^2= 6.1D-01
   Bfn.  Coefficient  Atom+Function         Bfn.  Coefficient  Atom+Function  
  ----- ------------  ---------------      ----- ------------  ---------------
    12      1.727573  1 O  dxz               14      0.112781  1 O  dyz        
     9     -0.028103  1 O  pz         

 Vector   16  Occ=0.000000D+00  E= 1.808953D+00  Symmetry=a"
              MO Center= -1.0D-01,  1.4D-01, -7.2D-23, r^2= 6.1D-01
   Bfn.  Coefficient  Atom+Function         Bfn.  Coefficient  Atom+Function  
  ----- ------------  ---------------      ----- ------------  ---------------
    14      1.728358  1 O  dyz               12     -0.112494  1 O  dxz        

 Vector   17  Occ=0.000000D+00  E= 1.820981D+00  Symmetry=a'
              MO Center= -1.0D-01,  1.1D-01, -4.5D-17, r^2= 6.4D-01
   Bfn.  Coefficient  Atom+Function         Bfn.  Coefficient  Atom+Function  
  ----- ------------  ---------------      ----- ------------  ---------------
    13      0.899059  1 O  dyy               15     -0.835460  1 O  dzz        
    19     -0.067703  3 H  s                  8     -0.065917  1 O  py         
    18     -0.050753  3 H  s                  2     -0.043026  1 O  s          
     4      0.040654  1 O  py                 7     -0.031068  1 O  px         
    11     -0.027746  1 O  dxy               17      0.025819  2 H  s          

 Vector   18  Occ=0.000000D+00  E= 2.400766D+00  Symmetry=a'
              MO Center=  6.4D-02,  1.4D-01,  2.0D-18, r^2= 8.2D-01
   Bfn.  Coefficient  Atom+Function         Bfn.  Coefficient  Atom+Function  
  ----- ------------  ---------------      ----- ------------  ---------------
    16     -1.151458  2 H  s                 10      1.083262  1 O  dxx        
     6      0.940850  1 O  s                  7      0.759733  1 O  px         
    15     -0.686024  1 O  dzz               13     -0.633555  1 O  dyy        
     2     -0.320939  1 O  s                 11      0.101733  1 O  dxy        
     3     -0.089066  1 O  px                17     -0.048727  2 H  s          

 Vector   19  Occ=0.000000D+00  E= 3.430613D+00  Symmetry=a'
              MO Center= -1.1D-01,  1.3D-01,  1.7D-18, r^2= 9.6D-01
   Bfn.  Coefficient  Atom+Function         Bfn.  Coefficient  Atom+Function  
  ----- ------------  ---------------      ----- ------------  ---------------
     6      3.083554  1 O  s                 15     -1.489526  1 O  dzz        
    10     -1.450292  1 O  dxx               13     -1.443098  1 O  dyy        
    17     -0.583590  2 H  s                  1     -0.441714  1 O  s          
     2      0.434962  1 O  s                  7      0.284125  1 O  px         
    16      0.127902  2 H  s                 19     -0.106084  3 H  s          


 center of mass
 --------------
 x =  -0.09415019 y =   0.06167081 z =   0.00000000

 moments of inertia (a.u.)
 ------------------
          11.183795716335          -0.599511323549           0.000000000000
          -0.599511323549           3.407605529930           0.000000000000
           0.000000000000           0.000000000000          14.591401246265

     Multipole analysis of the density
     ---------------------------------

     L   x y z        total         alpha         beta         nuclear
     -   - - -        -----         -----         ----         -------
     0   0 0 0     -0.000000     -5.000000     -5.000000     10.000000

     1   1 0 0      0.658195      0.393337      0.393337     -0.128478
     1   0 1 0     -0.533064      0.167979      0.167979     -0.869021
     1   0 0 1      0.000000      0.000000      0.000000      0.000000

     2   2 0 0     -4.276926     -3.754821     -3.754821      3.232715
     2   1 1 0      0.371813     -0.254237     -0.254237      0.880287
     2   1 0 1      0.000000      0.000000      0.000000      0.000000
     2   0 2 0     -2.949071     -6.810179     -6.810179     10.671286
     2   0 1 1      0.000000      0.000000      0.000000      0.000000
     2   0 0 2     -5.761251     -2.880626     -2.880626      0.000000


 Parallel integral file used       1 records with       0 large values

 Line search: 
     step= 1.00 grad=-1.4D-02 hess= 3.1D-03 energy=    -76.259547 mode=downhill
 new step= 2.32                   predicted energy=    -76.264957
  no constraints, skipping    0.0000000000000000     
  no constraints, skipping    0.0000000000000000     
  no constraints, skipping    0.0000000000000000     
  no constraints, skipping    0.0000000000000000     
  no constraints, skipping    0.0000000000000000     

          --------
          Step   1
          --------


                         Geometry "geometry" -> "geometry"
                         ---------------------------------

 Output coordinates in angstroms (scale by  1.889725989 to convert to a.u.)

  No.       Tag          Charge          X              Y              Z
 ---- ---------------- ---------- -------------- -------------- --------------
    1 O                    8.0000    -0.10146562     0.04344651     0.00000000
    2 H                    1.0000     0.94478305     0.25033811     0.00000000
    3 H                    1.0000    -0.17991245    -1.68133144     0.00000000

      Atomic Mass 
      ----------- 

      O                 15.994910
      H                  1.007825


 Effective nuclear repulsion energy (a.u.)       6.6580976343

            Nuclear Dipole moment (a.u.) 
            ----------------------------
        X                 Y               Z
 ---------------- ---------------- ----------------
    -0.0885418399    -2.0473692985     0.0000000000

      Symmetry information
      --------------------

 Group name             Cs        
 Group number              2
 Group order               2
 No. of unique centers     3

      Symmetry unique atoms

     1    2    3


                                 NWChem DFT Module
                                 -----------------


                                      Título




 Summary of "ao basis" -> "ao basis" (cartesian)
 ------------------------------------------------------------------------------
       Tag                 Description            Shells   Functions and Types
 ---------------- ------------------------------  ------  ---------------------
 O                           6-31G*                  6       15   3s2p1d
 H                           6-31G*                  2        2   2s


      Symmetry analysis of basis
      --------------------------

        a'         15
        a"          4

  Caching 1-el integrals 

            General Information
            -------------------
          SCF calculation type: DFT
          Wavefunction type:  closed shell.
          No. of atoms     :     3
          No. of electrons :    10
           Alpha electrons :     5
            Beta electrons :     5
          Charge           :     0
          Spin multiplicity:     1
          Use of symmetry is: on ; symmetry adaption is: on 
          Maximum number of iterations:  30
          AO basis - number of functions:    19
                     number of shells:    10
          Convergence on energy requested:  1.00D-06
          Convergence on density requested:  1.00D-05
          Convergence on gradient requested:  5.00D-04

              XC Information
              --------------
                         B3LYP Method XC Potential
                     Hartree-Fock (Exact) Exchange  0.200          
                        Slater Exchange Functional  0.800 local    
                    Becke 1988 Exchange Functional  0.720 non-local
              Lee-Yang-Parr Correlation Functional  0.810          
                  VWN I RPA Correlation Functional  0.190 local    

             Grid Information
             ----------------
          Grid used for XC integration:  medium    
          Radial quadrature: Mura-Knowles        
          Angular quadrature: Lebedev. 
          Tag              B.-S. Rad. Rad. Pts. Rad. Cut. Ang. Pts.
          ---              ---------- --------- --------- ---------
          O                   0.60       49           6.0       434
          H                   0.35       45           7.0       434
          Grid pruning is: on 
          Number of quadrature shells:   139
          Spatial weights used:  Erf1

          Convergence Information
          -----------------------
          Convergence aids based upon iterative change in 
          total energy or number of iterations. 
          Levelshifting, if invoked, occurs when the 
          HOMO/LUMO gap drops below (HL_TOL):  1.00D-02
          DIIS, if invoked, will attempt to extrapolate 
          using up to (NFOCK): 10 stored Fock matrices.

                    Damping( 0%)  Levelshifting(0.5)       DIIS
                  --------------- ------------------- ---------------
          dE  on:    start            ASAP                start   
          dE off:    2 iters         30 iters            30 iters 


      Screening Tolerance Information
      -------------------------------
          Density screening/tol_rho:  1.00D-10
          AO Gaussian exp screening on grid/accAOfunc:  14
          CD Gaussian exp screening on grid/accCDfunc:  20
          XC Gaussian exp screening on grid/accXCfunc:  20
          Schwarz screening/accCoul:  1.00D-08


 Loading old vectors from job with title :

Título


      Symmetry analysis of molecular orbitals - initial
      -------------------------------------------------

  Numbering of irreducible representations: 

     1 a'          2 a"      

  Orbital symmetries:

     1 a'          2 a'          3 a'          4 a'          5 a"      
     6 a'          7 a'          8 a'          9 a'         10 a'      
    11 a"         12 a'         13 a'         14 a'         15 a"      

   Time after variat. SCF:      0.6
   Time prior to 1st pass:      0.6

 #quartets = 1.540D+03 #integrals = 8.940D+03 #direct =  0.0% #cached =100.0%


 Integral file          = ./molecule.aoints.0
 Record size in doubles =  65536        No. of integs per rec  =  43688
 Max. records in memory =      2        Max. records in file   =  48006
 No. of bits per label  =      8        No. of bits per value  =     64


 Grid_pts file          = ./molecule.gridpts.0
 Record size in doubles =  12289        No. of grid_pts per rec  =   3070
 Max. records in memory =     23        Max. recs in file   =    256018


           Memory utilization after 1st SCF pass: 
           Heap Space remaining (MW):      261.73           261728638
          Stack Space remaining (MW):      262.14           262143764

   convergence    iter        energy       DeltaE   RMS-Dens  Diis-err    time
 ---------------- ----- ----------------- --------- --------- ---------  ------
 d= 0,ls=0.0,diis     1    -76.2622944386 -8.29D+01  7.04D-03  1.60D-02     0.7
 d= 0,ls=0.0,diis     2    -76.2661520510 -3.86D-03  1.48D-03  7.00D-04     0.7
 d= 0,ls=0.0,diis     3    -76.2662205151 -6.85D-05  1.01D-03  5.15D-04     0.7
 d= 0,ls=0.0,diis     4    -76.2662145678  5.95D-06  6.50D-04  4.18D-04     0.7
 d= 0,ls=0.0,diis     5    -76.2662695274 -5.50D-05  9.62D-05  4.40D-06     0.7
 d= 0,ls=0.0,diis     6    -76.2662703026 -7.75D-07  1.48D-05  1.36D-07     0.7
 d= 0,ls=0.0,diis     7    -76.2662703256 -2.30D-08  1.57D-06  7.33D-10     0.8


         Total DFT energy =      -76.266270325618
      One electron energy =     -118.223571128962
           Coulomb energy =       44.402718365692
    Exchange-Corr. energy =       -9.103515196649
 Nuclear repulsion energy =        6.658097634300

 Numeric. integr. density =       10.000000242742

     Total iterative time =      0.2s



                  Occupations of the irreducible representations
                  ----------------------------------------------

                     irrep           alpha         beta
                     --------     --------     --------
                     a'                4.0          4.0
                     a"                1.0          1.0


                       DFT Final Molecular Orbital Analysis
                       ------------------------------------

 Vector    1  Occ=2.000000D+00  E=-1.918649D+01  Symmetry=a'
              MO Center= -1.0D-01,  4.3D-02,  1.7D-29, r^2= 1.5D-02
   Bfn.  Coefficient  Atom+Function         Bfn.  Coefficient  Atom+Function  
  ----- ------------  ---------------      ----- ------------  ---------------
     1      0.993034  1 O  s                  2      0.026022  1 O  s          

 Vector    2  Occ=2.000000D+00  E=-9.263319D-01  Symmetry=a'
              MO Center=  7.7D-02,  4.8D-02,  2.1D-17, r^2= 5.0D-01
   Bfn.  Coefficient  Atom+Function         Bfn.  Coefficient  Atom+Function  
  ----- ------------  ---------------      ----- ------------  ---------------
     6      0.507885  1 O  s                  2      0.494925  1 O  s          
     1     -0.220171  1 O  s                 16      0.135171  2 H  s          
     3      0.099814  1 O  px                 7      0.057216  1 O  px         

 Vector    3  Occ=2.000000D+00  E=-4.256422D-01  Symmetry=a'
              MO Center=  4.3D-02, -5.1D-02, -1.3D-16, r^2= 9.7D-01
   Bfn.  Coefficient  Atom+Function         Bfn.  Coefficient  Atom+Function  
  ----- ------------  ---------------      ----- ------------  ---------------
     3      0.478682  1 O  px                 6     -0.288822  1 O  s          
     7      0.274616  1 O  px                16      0.265003  2 H  s          
    17      0.210806  2 H  s                  4      0.187490  1 O  py         
    19     -0.129981  3 H  s                  2     -0.124218  1 O  s          
     8      0.115463  1 O  py                18     -0.096712  3 H  s          

 Vector    4  Occ=2.000000D+00  E=-3.392494D-01  Symmetry=a'
              MO Center= -1.2D-01, -5.0D-01,  2.5D-16, r^2= 1.4D+00
   Bfn.  Coefficient  Atom+Function         Bfn.  Coefficient  Atom+Function  
  ----- ------------  ---------------      ----- ------------  ---------------
     4      0.434859  1 O  py                19     -0.349504  3 H  s          
     8      0.311882  1 O  py                18     -0.236555  3 H  s          
     3     -0.225689  1 O  px                 6      0.202849  1 O  s          
     7     -0.149758  1 O  px                 2      0.099425  1 O  s          
    17     -0.073576  2 H  s                 16     -0.062609  2 H  s          

 Vector    5  Occ=2.000000D+00  E=-2.848752D-01  Symmetry=a"
              MO Center= -8.7D-02,  4.2D-02, -4.0D-16, r^2= 5.8D-01
   Bfn.  Coefficient  Atom+Function         Bfn.  Coefficient  Atom+Function  
  ----- ------------  ---------------      ----- ------------  ---------------
     5      0.660556  1 O  pz                 9      0.488974  1 O  pz         
    12      0.042007  1 O  dxz        

 Vector    6  Occ=0.000000D+00  E=-1.240605D-01  Symmetry=a'
              MO Center= -1.3D-01, -1.0D+00,  6.4D-17, r^2= 1.7D+00
   Bfn.  Coefficient  Atom+Function         Bfn.  Coefficient  Atom+Function  
  ----- ------------  ---------------      ----- ------------  ---------------
    19      0.664622  3 H  s                  4      0.450997  1 O  py         
     8      0.402228  1 O  py                18      0.307324  3 H  s          
     6     -0.260503  1 O  s                 17      0.126326  2 H  s          
     2     -0.074657  1 O  s                  7     -0.074670  1 O  px         
     3     -0.064076  1 O  px                 1      0.039445  1 O  s          

 Vector    7  Occ=0.000000D+00  E= 7.111961D-02  Symmetry=a'
              MO Center=  9.8D-01,  2.4D-01,  1.9D-17, r^2= 1.6D+00
   Bfn.  Coefficient  Atom+Function         Bfn.  Coefficient  Atom+Function  
  ----- ------------  ---------------      ----- ------------  ---------------
    17      1.346942  2 H  s                  6     -0.751110  1 O  s          
     7     -0.561812  1 O  px                 3     -0.378237  1 O  px         
    16      0.181666  2 H  s                  8     -0.156648  1 O  py         
    19     -0.138597  3 H  s                  4     -0.124364  1 O  py         
     2     -0.089518  1 O  s                 18     -0.067554  3 H  s          

 Vector    8  Occ=0.000000D+00  E= 7.193061D-01  Symmetry=a'
              MO Center=  1.7D-01, -1.0D+00,  2.5D-16, r^2= 2.4D+00
   Bfn.  Coefficient  Atom+Function         Bfn.  Coefficient  Atom+Function  
  ----- ------------  ---------------      ----- ------------  ---------------
    19     -1.005766  3 H  s                 18      0.968899  3 H  s          
    16      0.666197  2 H  s                 17     -0.541313  2 H  s          
     6      0.396216  1 O  s                  8     -0.371487  1 O  py         
     3     -0.311951  1 O  px                 4      0.178146  1 O  py         
     2     -0.104657  1 O  s                 15     -0.092300  1 O  dzz        

 Vector    9  Occ=0.000000D+00  E= 7.717878D-01  Symmetry=a'
              MO Center=  4.5D-01, -5.3D-01, -3.0D-16, r^2= 2.6D+00
   Bfn.  Coefficient  Atom+Function         Bfn.  Coefficient  Atom+Function  
  ----- ------------  ---------------      ----- ------------  ---------------
    17     -0.960462  2 H  s                 16      0.943774  2 H  s          
    19      0.900702  3 H  s                 18     -0.752299  3 H  s          
     3     -0.269391  1 O  px                 8      0.228166  1 O  py         
    10      0.174734  1 O  dxx                4     -0.129743  1 O  py         
    11      0.084304  1 O  dxy               13     -0.079444  1 O  dyy        

 Vector   10  Occ=0.000000D+00  E= 8.777787D-01  Symmetry=a'
              MO Center= -5.1D-01,  2.1D-01, -1.3D-14, r^2= 1.3D+00
   Bfn.  Coefficient  Atom+Function         Bfn.  Coefficient  Atom+Function  
  ----- ------------  ---------------      ----- ------------  ---------------
     6      1.911893  1 O  s                  2     -1.023566  1 O  s          
     7     -0.573225  1 O  px                 3      0.532398  1 O  px         
    17     -0.361932  2 H  s                 15     -0.347311  1 O  dzz        
    13     -0.337512  1 O  dyy               10     -0.311285  1 O  dxx        
     4     -0.307051  1 O  py                 8      0.282024  1 O  py         

 Vector   11  Occ=0.000000D+00  E= 8.927682D-01  Symmetry=a"
              MO Center= -9.8D-02,  4.3D-02,  1.4D-14, r^2= 1.1D+00
   Bfn.  Coefficient  Atom+Function         Bfn.  Coefficient  Atom+Function  
  ----- ------------  ---------------      ----- ------------  ---------------
     9      1.047039  1 O  pz                 5     -0.948524  1 O  pz         

 Vector   12  Occ=0.000000D+00  E= 9.886800D-01  Symmetry=a'
              MO Center= -1.8D-01, -2.2D-01,  4.6D-18, r^2= 1.2D+00
   Bfn.  Coefficient  Atom+Function         Bfn.  Coefficient  Atom+Function  
  ----- ------------  ---------------      ----- ------------  ---------------
     8      1.085347  1 O  py                 4     -0.886146  1 O  py         
     6     -0.628125  1 O  s                  2      0.381101  1 O  s          
    18      0.315061  3 H  s                  7      0.286867  1 O  px         
     3     -0.208149  1 O  px                13      0.175995  1 O  dyy        
    19      0.149494  3 H  s                 15      0.090554  1 O  dzz        

 Vector   13  Occ=0.000000D+00  E= 1.109309D+00  Symmetry=a'
              MO Center=  3.3D-01,  1.2D-02, -3.2D-16, r^2= 1.4D+00
   Bfn.  Coefficient  Atom+Function         Bfn.  Coefficient  Atom+Function  
  ----- ------------  ---------------      ----- ------------  ---------------
     6      2.441054  1 O  s                  7      1.314300  1 O  px         
     2     -1.096711  1 O  s                 17     -0.925326  2 H  s          
     3     -0.673243  1 O  px                10     -0.462402  1 O  dxx        
    16     -0.334026  2 H  s                 13     -0.279140  1 O  dyy        
    15     -0.244740  1 O  dzz               18     -0.119758  3 H  s          

 Vector   14  Occ=0.000000D+00  E= 1.765533D+00  Symmetry=a'
              MO Center= -1.3D-01,  4.2D-02, -2.3D-18, r^2= 6.2D-01
   Bfn.  Coefficient  Atom+Function         Bfn.  Coefficient  Atom+Function  
  ----- ------------  ---------------      ----- ------------  ---------------
    11      1.620943  1 O  dxy               10     -0.334106  1 O  dxx        
    13      0.257892  1 O  dyy               15      0.074748  1 O  dzz        
     8     -0.064097  1 O  py                 6      0.054284  1 O  s          
    18     -0.048664  3 H  s                  2     -0.040282  1 O  s          

 Vector   15  Occ=0.000000D+00  E= 1.783858D+00  Symmetry=a"
              MO Center= -1.2D-01,  3.8D-02,  2.2D-17, r^2= 6.1D-01
   Bfn.  Coefficient  Atom+Function         Bfn.  Coefficient  Atom+Function  
  ----- ------------  ---------------      ----- ------------  ---------------
    12      1.642728  1 O  dxz               14      0.547252  1 O  dyz        

 Vector   16  Occ=0.000000D+00  E= 1.814434D+00  Symmetry=a"
              MO Center= -1.0D-01,  5.0D-02,  6.5D-22, r^2= 6.1D-01
   Bfn.  Coefficient  Atom+Function         Bfn.  Coefficient  Atom+Function  
  ----- ------------  ---------------      ----- ------------  ---------------
    14      1.643320  1 O  dyz               12     -0.546955  1 O  dxz        

 Vector   17  Occ=0.000000D+00  E= 1.830462D+00  Symmetry=a'
              MO Center= -1.0D-01,  1.3D-02,  6.9D-17, r^2= 6.4D-01
   Bfn.  Coefficient  Atom+Function         Bfn.  Coefficient  Atom+Function  
  ----- ------------  ---------------      ----- ------------  ---------------
    13      0.885318  1 O  dyy               15     -0.835702  1 O  dzz        
    11     -0.207428  1 O  dxy               18     -0.105349  3 H  s          
     8     -0.081039  1 O  py                 2     -0.061624  1 O  s          
     4      0.051660  1 O  py                19     -0.034983  3 H  s          
     6      0.028955  1 O  s          

 Vector   18  Occ=0.000000D+00  E= 2.306268D+00  Symmetry=a'
              MO Center=  7.5D-02,  7.9D-02, -1.3D-17, r^2= 8.1D-01
   Bfn.  Coefficient  Atom+Function         Bfn.  Coefficient  Atom+Function  
  ----- ------------  ---------------      ----- ------------  ---------------
    16     -0.997624  2 H  s                 10      0.982204  1 O  dxx        
     6      0.767964  1 O  s                 15     -0.649278  1 O  dzz        
     7      0.639663  1 O  px                11      0.632147  1 O  dxy        
    13     -0.547019  1 O  dyy                2     -0.300508  1 O  s          
     3     -0.127293  1 O  px                 8      0.121514  1 O  py         

 Vector   19  Occ=0.000000D+00  E= 3.427144D+00  Symmetry=a'
              MO Center= -1.1D-01,  4.7D-02,  1.4D-18, r^2= 9.6D-01
   Bfn.  Coefficient  Atom+Function         Bfn.  Coefficient  Atom+Function  
  ----- ------------  ---------------      ----- ------------  ---------------
     6      3.039153  1 O  s                 15     -1.495486  1 O  dzz        
    10     -1.436848  1 O  dxx               13     -1.433811  1 O  dyy        
    17     -0.524011  2 H  s                  2      0.443027  1 O  s          
     1     -0.440519  1 O  s                  7      0.261781  1 O  px         
    19     -0.140181  3 H  s                 16      0.097602  2 H  s          


 center of mass
 --------------
 x =  -0.08940274 y =  -0.07840575 z =   0.00000000

 moments of inertia (a.u.)
 ------------------
          10.396592019029          -1.561845855076           0.000000000000
          -1.561845855076           3.773121278336           0.000000000000
           0.000000000000           0.000000000000          14.169713297365

     Multipole analysis of the density
     ---------------------------------

     L   x y z        total         alpha         beta         nuclear
     -   - - -        -----         -----         ----         -------
     0   0 0 0     -0.000000     -5.000000     -5.000000     10.000000

     1   1 0 0      0.620716      0.354629      0.354629     -0.088542
     1   0 1 0     -0.470535      0.788417      0.788417     -2.047369
     1   0 0 1      0.000000      0.000000      0.000000      0.000000

     2   2 0 0     -4.206234     -3.901765     -3.901765      3.597296
     2   1 1 0      0.615228     -0.591832     -0.591832      1.798892
     2   1 0 1      0.000000      0.000000      0.000000      0.000000
     2   0 2 0     -2.740667     -6.556671     -6.556671     10.372675
     2   0 1 1      0.000000      0.000000      0.000000      0.000000
     2   0 0 2     -5.788271     -2.894135     -2.894135      0.000000


 Parallel integral file used       1 records with       0 large values


            General Information
            -------------------
          SCF calculation type: DFT
          Wavefunction type:  closed shell.
          No. of atoms     :     3
          No. of electrons :    10
           Alpha electrons :     5
            Beta electrons :     5
          Charge           :     0
          Spin multiplicity:     1
          Use of symmetry is: on ; symmetry adaption is: on 
          Maximum number of iterations:  30
          AO basis - number of functions:    19
                     number of shells:    10
          Convergence on energy requested:  1.00D-06
          Convergence on density requested:  1.00D-05
          Convergence on gradient requested:  5.00D-04

              XC Information
              --------------
                         B3LYP Method XC Potential
                     Hartree-Fock (Exact) Exchange  0.200          
                        Slater Exchange Functional  0.800 local    
                    Becke 1988 Exchange Functional  0.720 non-local
              Lee-Yang-Parr Correlation Functional  0.810          
                  VWN I RPA Correlation Functional  0.190 local    

             Grid Information
             ----------------
          Grid used for XC integration:  medium    
          Radial quadrature: Mura-Knowles        
          Angular quadrature: Lebedev. 
          Tag              B.-S. Rad. Rad. Pts. Rad. Cut. Ang. Pts.
          ---              ---------- --------- --------- ---------
          O                   0.60       49           6.0       434
          H                   0.35       45           7.0       434
          Grid pruning is: on 
          Number of quadrature shells:   139
          Spatial weights used:  Erf1

          Convergence Information
          -----------------------
          Convergence aids based upon iterative change in 
          total energy or number of iterations. 
          Levelshifting, if invoked, occurs when the 
          HOMO/LUMO gap drops below (HL_TOL):  1.00D-02
          DIIS, if invoked, will attempt to extrapolate 
          using up to (NFOCK): 10 stored Fock matrices.

                    Damping( 0%)  Levelshifting(0.5)       DIIS
                  --------------- ------------------- ---------------
          dE  on:    start            ASAP                start   
          dE off:    2 iters         30 iters            30 iters 


      Screening Tolerance Information
      -------------------------------
          Density screening/tol_rho:  1.00D-10
          AO Gaussian exp screening on grid/accAOfunc:  14
          CD Gaussian exp screening on grid/accCDfunc:  20
          XC Gaussian exp screening on grid/accXCfunc:  20
          Schwarz screening/accCoul:  1.00D-08



                            NWChem DFT Gradient Module
                            --------------------------


                                      Título



  charge          =   0.00
  wavefunction    = closed shell

  Using symmetry


                         DFT ENERGY GRADIENTS

    atom               coordinates                        gradient
                 x          y          z           x          y          z
   1 O      -0.191742   0.082102   0.000000   -0.046207   0.068244   0.000000
   2 H       1.785381   0.473070   0.000000    0.057435   0.023026   0.000000
   3 H      -0.339985  -3.177256   0.000000   -0.011228  -0.091271   0.000000

                 ----------------------------------------
                 |  Time  |  1-e(secs)   |  2-e(secs)   |
                 ----------------------------------------
                 |  CPU   |       0.00   |       0.10   |
                 ----------------------------------------
                 |  WALL  |       0.00   |       0.03   |
                 ----------------------------------------
  no constraints, skipping    0.0000000000000000     

  Step       Energy      Delta E   Gmax     Grms     Xrms     Xmax   Walltime
  ---- ---------------- -------- -------- -------- -------- -------- --------
@    1     -76.26627033 -1.8D-02  0.09169  0.06391  0.16187  0.29903      0.8
                                                                    



                                Z-matrix (autoz)
                                -------- 

 Units are Angstrom for bonds and degrees for angles

      Type          Name      I     J     K     L     M      Value     Gradient
      ----------- --------  ----- ----- ----- ----- ----- ---------- ----------
    1 Stretch                  1     3                       1.72656    0.09169
    2 Stretch                  1     2                       1.06651    0.06081
    3 Bend                     2     1     3               103.78986    0.01221

 Restricting large step in mode    1 eval= 7.6D-03 step=-5.6D+00 new=-3.0D-01
 Restricting large step in mode    2 eval= 4.5D-02 step=-9.8D-01 new=-3.0D-01
 Restricting overall step due to large component. alpha=  0.72
  no constraints, skipping    0.0000000000000000     
  no constraints, skipping    0.0000000000000000     
[...]
  level shift      = 0.00D+00
  max iterations   =       50
  max subspace     =       90


 #quartets = 1.540D+03 #integrals = 8.940D+03 #direct =  0.0% #cached =100.0%


 Integral file          = ./molecule.aoints.0
 Record size in doubles =  65536        No. of integs per rec  =  43688
 Max. records in memory =      2        Max. records in file   =  48002
 No. of bits per label  =      8        No. of bits per value  =     64

 Grid integrated density:      10.000000293121
 Requested integration accuracy:   0.10E-13
 SCF residual:    6.2471223888312204E-008


Iterative solution of linear equations
  No. of variables       70
  No. of equations        9
  Maximum subspace       90
        Iterations       50
       Convergence  1.0D-04
        Start time      5.9


   iter   nsub   residual    time
   ----  ------  --------  ---------
     1      9    3.88D-01       6.3
     2     18    1.50D-01       6.8
     3     27    2.54D-03       7.2
     4     36    1.07D-04       7.6
     5     45    8.42D-07       8.0

 Parallel integral file used       1 records with       0 large values

 HESSIAN: the CPHF contributions are done
  stpr_wrt_fd_from_sq: overwrite of existing file:./molecule.hess
 stpr_wrt_fd_dipole: overwrite of existing file./molecule.fd_ddipole

 Derivative Dipole

  
  
 X vector of derivative dipole (au) [debye/angstrom]
 d_dipole_x/<atom=   1,x> =    -0.3624     [   -1.7405]
 d_dipole_x/<atom=   1,y> =    -0.0359     [   -0.1725]
 d_dipole_x/<atom=   1,z> =     0.0000     [    0.0000]
 d_dipole_x/<atom=   2,x> =     0.0767     [    0.3684]
 d_dipole_x/<atom=   2,y> =     0.0053     [    0.0253]
 d_dipole_x/<atom=   2,z> =    -0.0000     [   -0.0000]
 d_dipole_x/<atom=   3,x> =     0.2857     [    1.3721]
 d_dipole_x/<atom=   3,y> =     0.0307     [    0.1472]
 d_dipole_x/<atom=   3,z> =    -0.0000     [   -0.0000]
  
 Y vector of derivative dipole (au) [debye/angstrom]
 d_dipole_y/<atom=   1,x> =    -0.0359     [   -0.1725]
 d_dipole_y/<atom=   1,y> =    -0.3826     [   -1.8377]
 d_dipole_y/<atom=   1,z> =    -0.0000     [   -0.0000]
 d_dipole_y/<atom=   2,x> =    -0.0283     [   -0.1358]
 d_dipole_y/<atom=   2,y> =     0.2958     [    1.4207]
 d_dipole_y/<atom=   2,z> =     0.0000     [    0.0000]
 d_dipole_y/<atom=   3,x> =     0.0642     [    0.3083]
 d_dipole_y/<atom=   3,y> =     0.0868     [    0.4170]
 d_dipole_y/<atom=   3,z> =     0.0000     [    0.0000]
  
 Z vector of derivative dipole (au) [debye/angstrom]
 d_dipole_z/<atom=   1,x> =    -0.0000     [   -0.0000]
 d_dipole_z/<atom=   1,y> =     0.0000     [    0.0000]
 d_dipole_z/<atom=   1,z> =    -0.7286     [   -3.4997]
 d_dipole_z/<atom=   2,x> =     0.0000     [    0.0000]
 d_dipole_z/<atom=   2,y> =     0.0000     [    0.0000]
 d_dipole_z/<atom=   2,z> =     0.3643     [    1.7498]
 d_dipole_z/<atom=   3,x> =     0.0000     [    0.0000]
 d_dipole_z/<atom=   3,y> =    -0.0000     [   -0.0000]
 d_dipole_z/<atom=   3,z> =     0.3643     [    1.7498]
  
  
 HESSIAN: the Hessian is done


  Vibrational analysis via the FX method 

  See chapter 2 in "Molecular Vibrations" by Wilson, Decius and Cross

  Vib: Default input used 

  Nuclear Hessian passed symmetry test 



 ---------------------------- Atom information ----------------------------
     atom    #        X              Y              Z            mass
 --------------------------------------------------------------------------
    O        1 -1.8351338D-01 -4.1873964D-01  0.0000000D+00  1.5994910D+01
    H        2  1.5872315D+00  4.5746227D-02  0.0000000D+00  1.0078250D+00
    H        3 -1.5006450D-01 -2.2490899D+00  0.0000000D+00  1.0078250D+00
 --------------------------------------------------------------------------




          ----------------------------------------------------
          MASS-WEIGHTED NUCLEAR HESSIAN (Hartree/Bohr/Bohr/Kamu)
          ----------------------------------------------------


               1            2            3            4            5            6            7            8            9
   ----- ----- ----- ----- -----
    1    3.27519D+01
    2    5.87238D+00  3.60625D+01
    3    1.19779D-06 -1.16575D-06  4.41777D-04
    4   -1.18164D+02 -3.50706D+01 -1.41112D-08  4.73861D+02
    5   -1.81670D+01 -1.89116D+01 -1.50997D-08  1.27287D+02  9.04380D+01
    6    2.26677D-07 -1.62498D-07 -3.67792D-04 -9.19120D-07 -1.87600D-07  1.76875D-03
    7   -1.23159D+01  1.16754D+01  1.96040D-08 -3.11910D+00 -5.49136D+01  3.84969D-08  5.21835D+01
    8   -5.22821D+00 -1.24758D+02  2.13600D-08  1.24272D+01 -1.50977D+01 -1.25789D-07  8.40083D+00  5.12108D+02
    9    2.24205D-07 -1.75415D-07 -6.82127D-04 -9.21796D-07 -1.75290D-07 -2.90016D-04 -6.91532D-08  9.54222D-07  3.02094D-03



          -------------------------------------------------
          NORMAL MODE EIGENVECTORS IN CARTESIAN COORDINATES
          -------------------------------------------------
                 (Frequencies expressed in cm-1)

                    1           2           3           4           5           6
 
 Frequency         -4.61       -3.32        2.05        7.00        8.33        9.22
 
           1    -0.14304     0.18823     0.00045     0.00003     0.02310     0.00002
           2    -0.18996    -0.14174    -0.00041    -0.00001     0.03041    -0.00002
           3    -0.00005    -0.00062     0.23344     0.07088     0.00000     0.05480
           4    -0.15199     0.18821     0.00045     0.00001     0.20555     0.00001
           5    -0.15584    -0.14164    -0.00042     0.00006    -0.66511    -0.00000
           6    -0.00011    -0.00055     0.25701    -0.95255    -0.00010     0.13723
           7    -0.10777     0.18834     0.00044     0.00010    -0.69582     0.00003
           8    -0.18931    -0.14174    -0.00041    -0.00001     0.01727    -0.00002
           9    -0.00005    -0.00053     0.24765    -0.07179    -0.00003    -0.96216

                    7           8           9
 
 Frequency       1713.04     3727.09     3849.05
 
           1    -0.05409    -0.03901     0.04057
           2     0.04095     0.02954     0.05358
           3    -0.00000    -0.00000    -0.00000
           4     0.18055     0.65431    -0.65632
           5    -0.65345     0.22110    -0.17216
           6    -0.00000    -0.00000     0.00000
           7     0.67793    -0.03525     0.01240
           8     0.00354    -0.68993    -0.67823
           9    -0.00000    -0.00000    -0.00000



 ----------------------------------------------------------------------------
 Normal Eigenvalue ||         Derivative Dipole Moments (debye/angs)
  Mode   [cm**-1]  ||      [d/dqX]             [d/dqY]           [d/dqZ]
 ------ ---------- || ------------------ ------------------ -----------------
    1       -4.610 ||      -0.046              -0.061             0.000
    2       -3.322 ||       0.000               0.000             0.000
    3        2.046 ||      -0.000              -0.000             0.066
    4        7.003 ||      -0.000              -0.000             2.040
    5        8.328 ||      -0.939              -1.240            -0.000
    6        9.220 ||      -0.000              -0.000             1.635
    7     1713.037 ||       1.068              -0.808             0.000
    8     3727.092 ||      -0.159               0.121            -0.000
    9     3849.050 ||       0.409               0.540            -0.000
 ----------------------------------------------------------------------------



  
  
 ----------------------------------------------------------------------------
 Normal Eigenvalue ||                 Infra Red Intensities
  Mode   [cm**-1]  || [atomic units] [(debye/angs)**2] [(KM/mol)] [arbitrary]
 ------ ---------- || -------------- ----------------- ---------- -----------
    1       -4.610 ||    0.000252           0.006         0.246       0.045
    2       -3.322 ||    0.000000           0.000         0.000       0.000
    3        2.046 ||    0.000190           0.004         0.185       0.034
    4        7.003 ||    0.180469           4.164       175.930      32.418
    5        8.328 ||    0.104849           2.419       102.212      18.834
    6        9.220 ||    0.115906           2.674       112.991      20.821
    7     1713.037 ||    0.077737           1.793        75.782      13.964
    8     3727.092 ||    0.001735           0.040         1.692       0.312
    9     3849.050 ||    0.019883           0.459        19.383       3.572
 ----------------------------------------------------------------------------





        Vibrational analysis via the FX method 
  --- with translations and rotations projected out ---
  --- via the Eckart algorithm                      ---
 Projected Nuclear Hessian trans-rot subspace norm:9.2483D-34
                         (should be close to zero!) 

          --------------------------------------------------------
          MASS-WEIGHTED PROJECTED HESSIAN (Hartree/Bohr/Bohr/Kamu)
          --------------------------------------------------------


               1            2            3            4            5            6            7            8            9
   ----- ----- ----- ----- -----
    1    3.27522D+01
    2    5.87251D+00  3.60630D+01
    3   -5.17152D-22  5.17152D-22  0.00000D+00
    4   -1.18163D+02 -3.50704D+01  6.95330D-22  4.73859D+02
    5   -1.81669D+01 -1.89112D+01 -5.50469D-22  1.27288D+02  9.04370D+01
    6   -1.03012D-22  9.01353D-23  0.00000D+00  3.07784D-22 -1.79541D-22  0.00000D+00
    7   -1.23153D+01  1.16754D+01  9.07791D-22 -3.11904D+00 -5.49143D+01  2.05190D-22  5.21810D+01
    8   -5.22809D+00 -1.24757D+02 -7.50055D-22  1.24261D+01 -1.50985D+01 -1.79541D-22  8.40161D+00  5.12106D+02
    9   -1.07840D-21  1.02690D-21 -1.05484D-19  1.63510D-21 -2.14167D-21 -5.25285D-20  2.58411D-21 -1.87877D-21  0.00000D+00

 center of mass
 --------------
 x =  -0.08255530 y =  -0.49516993 z =   0.00000000

 moments of inertia (a.u.)
 ------------------
           3.488622179940          -0.906193755461           0.000000000000
          -0.906193755461           2.977627407343           0.000000000000
           0.000000000000           0.000000000000           6.466249587282

 Rotational Constants
 --------------------
 A=  26.269914 cm-1  ( 37.795702 K)
 B=  14.420419 cm-1  ( 20.747303 K)
 C=   9.309906 cm-1  ( 13.394579 K)


 Temperature                      =   298.15K
 frequency scaling parameter      =   1.0000

 Zero-Point correction to Energy  =   13.273 kcal/mol  (  0.021152 au)
 Thermal correction to Energy     =   15.051 kcal/mol  (  0.023985 au)
 Thermal correction to Enthalpy   =   15.643 kcal/mol  (  0.024929 au)

 Total Entropy                    =   46.494 cal/mol-K
   - Translational                =   34.593 cal/mol-K (mol. weight =  18.0106)
   - Rotational                   =   11.896 cal/mol-K (symmetry #  =        1)
   - Vibrational                  =    0.005 cal/mol-K

 Cv (constant volume heat capacity) =    5.994 cal/mol-K
   - Translational                  =    2.979 cal/mol-K
   - Rotational                     =    2.979 cal/mol-K
   - Vibrational                    =    0.035 cal/mol-K



          -------------------------------------------------
          NORMAL MODE EIGENVECTORS IN CARTESIAN COORDINATES
          -------------------------------------------------
             (Projected Frequencies expressed in cm-1)

                    1           2           3           4           5           6
 
 P.Frequency       -0.00       -0.00        0.00        0.00        0.00        0.00
 
           1    -0.02443     0.21197     0.00000     0.00000     0.00000    -0.10440
           2    -0.11561    -0.09854     0.00000     0.00000     0.00000    -0.18445
           3     0.00000     0.00000     0.25004     0.00000     0.00000     0.00000
           4    -0.19672     0.24353     0.00000     0.00000     0.00000    -0.05258
           5     0.54121    -0.21887     0.00000     0.00000     0.00000    -0.38198
           6     0.00000     0.00000     0.00000     0.99611     0.00000     0.00000
           7     0.65450     0.08759     0.00000     0.00000     0.00000    -0.30857
           8    -0.10321    -0.10081     0.00000     0.00000     0.00000    -0.18818
           9     0.00000     0.00000     0.00000     0.00000     0.99611     0.00000

                    7           8           9
 
 P.Frequency     1713.03     3727.09     3849.04
 
           1    -0.05409    -0.03901     0.04057
           2     0.04095     0.02954     0.05358
           3     0.00000     0.00000     0.00000
           4     0.18055     0.65431    -0.65632
           5    -0.65345     0.22110    -0.17216
           6     0.00000     0.00000     0.00000
           7     0.67792    -0.03525     0.01240
           8     0.00354    -0.68993    -0.67823
           9     0.00000     0.00000     0.00000



 ----------------------------------------------------------------------------
 Normal Eigenvalue ||    Projected Derivative Dipole Moments (debye/angs)
  Mode   [cm**-1]  ||      [d/dqX]             [d/dqY]           [d/dqZ]
 ------ ---------- || ------------------ ------------------ -----------------
    1       -0.000 ||       0.887               1.171             0.000
    2       -0.000 ||      -0.162              -0.215             0.000
    3        0.000 ||       0.000              -0.000            -0.875
    4        0.000 ||      -0.000               0.000             1.743
    5        0.000 ||      -0.000               0.000             1.743
    6        0.000 ||      -0.267              -0.352             0.000
    7     1713.027 ||       1.068              -0.808             0.000
    8     3727.089 ||       0.159              -0.121             0.000
    9     3849.038 ||      -0.409              -0.540             0.000
 ----------------------------------------------------------------------------



  
  
 ----------------------------------------------------------------------------
 Normal Eigenvalue ||           Projected Infra Red Intensities
  Mode   [cm**-1]  || [atomic units] [(debye/angs)**2] [(KM/mol)] [arbitrary]
 ------ ---------- || -------------- ----------------- ---------- -----------
    1       -0.000 ||    0.093506           2.157        91.154      16.797
    2       -0.000 ||    0.003138           0.072         3.059       0.564
    3        0.000 ||    0.033190           0.766        32.355       5.962
    4        0.000 ||    0.131688           3.038       128.376      23.655
    5        0.000 ||    0.131687           3.038       128.375      23.655
    6        0.000 ||    0.008457           0.195         8.244       1.519
    7     1713.027 ||    0.077737           1.793        75.782      13.964
    8     3727.089 ||    0.001735           0.040         1.692       0.312
    9     3849.038 ||    0.019883           0.459        19.383       3.572
 ----------------------------------------------------------------------------



 vib:animation  F

 Task  times  cpu:       13.9s     wall:        3.7s
 Summary of allocated global arrays
-----------------------------------
  No active global arrays



                         GA Statistics for process    0
                         ------------------------------

       create   destroy   get      put      acc     scatter   gather  read&inc
calls: 4223     4091     1.69e+05 2.24e+04 1.01e+05  227        0     1.14e+04 
number of processes/call 0.00e+00 0.00e+00 0.00e+00 0.00e+00 0.00e+00
bytes total:             6.19e+07 1.15e+07 4.11e+07 5.60e+02 0.00e+00 9.15e+04
bytes remote:            0.00e+00 0.00e+00 0.00e+00 0.00e+00 0.00e+00 0.00e+00
Max memory consumed for GA by this process: 282688 bytes
MA_summarize_allocated_blocks: starting scan ...
MA_summarize_allocated_blocks: scan completed: 0 heap blocks, 0 stack blocks
MA usage statistics:

	allocation statistics:
					      heap	     stack
					      ----	     -----
	current number of blocks	         0	         0
	maximum number of blocks	        26	        57
	current total bytes		         0	         0
	maximum total bytes		   5190528	  65541304
	maximum total K-bytes		      5191	     65542
	maximum total M-bytes		         6	        66


                                NWChem Input Module
                                -------------------





                                     CITATION
                                     --------
                Please cite the following reference when publishing
                           results obtained with NWChem:

          E. Aprà, E. J. Bylaska, W. A. de Jong, N. Govind, K. Kowalski,
       T. P. Straatsma, M. Valiev, H. J. J. van Dam, Y. Alexeev, J. Anchell,
       V. Anisimov, F. W. Aquino, R. Atta-Fynn, J. Autschbach, N. P. Bauman,
     J. C. Becca, D. E. Bernholdt, K. Bhaskaran-Nair, S. Bogatko, P. Borowski,
        J. Boschen, J. Brabec, A. Bruner, E. Cauët, Y. Chen, G. N. Chuev,
      C. J. Cramer, J. Daily, M. J. O. Deegan, T. H. Dunning Jr., M. Dupuis,
   K. G. Dyall, G. I. Fann, S. A. Fischer, A. Fonari, H. Früchtl, L. Gagliardi,
      J. Garza, N. Gawande, S. Ghosh, K. Glaesemann, A. W. Götz, J. Hammond,
       V. Helms, E. D. Hermes, K. Hirao, S. Hirata, M. Jacquelin, L. Jensen,
   B. G. Johnson, H. Jónsson, R. A. Kendall, M. Klemm, R. Kobayashi, V. Konkov,
      S. Krishnamoorthy, M. Krishnan, Z. Lin, R. D. Lins, R. J. Littlefield,
      A. J. Logsdail, K. Lopata, W. Ma, A. V. Marenich, J. Martin del Campo,
   D. Mejia-Rodriguez, J. E. Moore, J. M. Mullin, T. Nakajima, D. R. Nascimento,
    J. A. Nichols, P. J. Nichols, J. Nieplocha, A. Otero-de-la-Roza, B. Palmer,
    A. Panyala, T. Pirojsirikul, B. Peng, R. Peverati, J. Pittner, L. Pollack,
   R. M. Richard, P. Sadayappan, G. C. Schatz, W. A. Shelton, D. W. Silverstein,
   D. M. A. Smith, T. A. Soares, D. Song, M. Swart, H. L. Taylor, G. S. Thomas,
            V. Tipparaju, D. G. Truhlar, K. Tsemekhman, T. Van Voorhis,
     Á. Vázquez-Mayagoitia, P. Verma, O. Villa, A. Vishnu, K. D. Vogiatzis,
        D. Wang, J. H. Weare, M. J. Williamson, T. L. Windus, K. Woliński,
        A. T. Wong, Q. Wu, C. Yang, Q. Yu, M. Zacharias, Z. Zhang, Y. Zhao,
                                and R. J. Harrison
                        "NWChem: Past, present, and future
                         J. Chem. Phys. 152, 184102 (2020)
                               doi:10.1063/5.0004997

                                      AUTHORS
                                      -------
     E. Apra, E. J. Bylaska, N. Govind, K. Kowalski, M. Valiev, W. A. de Jong,
      T. P. Straatsma, H. J. J. van Dam, D. Wang, T. L. Windus, N. P. Bauman,
       A. Panyala, J. Hammond, J. Autschbach, K. Bhaskaran-Nair, J. Brabec,
    K. Lopata, S. A. Fischer, S. Krishnamoorthy, M. Jacquelin, W. Ma, M. Klemm,
       O. Villa, Y. Chen, V. Anisimov, F. Aquino, S. Hirata, M. T. Hackler,
           Eric Hermes, L. Jensen, J. E. Moore, J. C. Becca, V. Konjkov,
            D. Mejia-Rodriguez, T. Risthaus, M. Malagoli, A. Marenich,
   A. Otero-de-la-Roza, J. Mullin, P. Nichols, R. Peverati, J. Pittner, Y. Zhao,
        P.-D. Fan, A. Fonari, M. J. Williamson, R. J. Harrison, J. R. Rehr,
      M. Dupuis, D. Silverstein, D. M. A. Smith, J. Nieplocha, V. Tipparaju,
      M. Krishnan, B. E. Van Kuiken, A. Vazquez-Mayagoitia, M. Swart, Q. Wu,
   T. Van Voorhis, A. A. Auer, M. Nooijen, L. D. Crosby, E. Brown, G. Cisneros,
     G. I. Fann, H. Fruchtl, J. Garza, K. Hirao, R. A. Kendall, J. A. Nichols,
       K. Tsemekhman, K. Wolinski, J. Anchell, D. E. Bernholdt, P. Borowski,
       T. Clark, D. Clerc, H. Dachsel, M. J. O. Deegan, K. Dyall, D. Elwood,
      E. Glendening, M. Gutowski, A. C. Hess, J. Jaffe, B. G. Johnson, J. Ju,
        R. Kobayashi, R. Kutteh, Z. Lin, R. Littlefield, X. Long, B. Meng,
      T. Nakajima, S. Niu, L. Pollack, M. Rosing, K. Glaesemann, G. Sandrone,
      M. Stave, H. Taylor, G. Thomas, J. H. van Lenthe, A. T. Wong, Z. Zhang.

 Total times  cpu:       24.5s     wall:        8.0s
