3
Properties=species:S:1:pos:R:3:forces:R:3 energy=-2064.976729093277 free_energy=-2064.976729093277 dipole="0.28150640070364663 0.36363576213757587 0.0" pbc="F F F"
H        0.98983171      -0.00638962      -0.00000000       0.00092560       0.00046280       0.00000000
H       -0.25418721       0.95665951      -0.00000000       0.00020569       0.00102844      -0.00000000
O       -0.01804515      -0.02330940       0.00000000      -0.00113129      -0.00143982       0.00000000
