 argument  1 = energy.nw



============================== echo of input deck ==============================
echo

start molecule

title "Título"
memory 8000 mb
charge 0

geometry units angstroms print xyz autosym
   O      0.2672100000   -0.2505700000    0.2411800000
   H      0.5536293646    0.4280420604   -0.3587779956
   H      2.0844049454   -0.7237858772    0.2411792129
end

basis
  * library 6-31G*
end

dft
  xc b3lyp
  mult 1
end

task dft optimize
task dft energy
================================================================================


                                         
                                         


             Northwest Computational Chemistry Package (NWChem) 7.0.2
             --------------------------------------------------------


                    Environmental Molecular Sciences Laboratory
                       Pacific Northwest National Laboratory
                                Richland, WA 99352

                              Copyright (c) 1994-2020
                       Pacific Northwest National Laboratory
                            Battelle Memorial Institute

             NWChem is an open-source computational chemistry package
                        distributed under the terms of the
                      Educational Community License (ECL) 2.0
             A copy of the license is included with this distribution
                              in the LICENSE.TXT file

                                  ACKNOWLEDGMENT
                                  --------------

            This software and its documentation were developed at the
            EMSL at Pacific Northwest National Laboratory, a multiprogram
            national laboratory, operated for the U.S. Department of Energy
            by Battelle under Contract Number DE-AC05-76RL01830. Support
            for this work was provided by the Department of Energy Office
            of Biological and Environmental Research, Office of Basic
            Energy Sciences, and the Office of Advanced Scientific Computing.


           Job information
           ---------------

    hostname        = OMEN-HP-Laptop-16-c0xxx
    program         = nwchem
    date            = Thu Aug 14 22:46:16 2025

    compiled        = Sat_Apr_09_17:12:10_2022
    source          = /build/nwchem-f1f4gx/nwchem-7.0.2/build-openmpi
    nwchem branch   = 7.0.2
    nwchem revision = N/A
    ga revision     = 5.8.1
    use scalapack   = T
    input           = energy.nw
    prefix          = molecule.
    data base       = ./molecule.db
    status          = startup
    nproc           =        1
    time left       =     -1s



           Memory information
           ------------------

    heap     =  262143998 doubles =   2000.0 Mbytes
    stack    =  262143995 doubles =   2000.0 Mbytes
    global   =  524288000 doubles =   4000.0 Mbytes (distinct from heap & stack)
    total    = 1048575993 doubles =   8000.0 Mbytes
    verify   = yes
    hardfail = no 


           Directory information
           ---------------------

  0 permanent = .
  0 scratch   = .




                                NWChem Input Module
                                -------------------


                                      Título
                                      -------

 Scaling coordinates for geometry "geometry" by  1.889725989
 (inverse scale =  0.529177249)

 CS  symmetry detected

          ------
          auto-z
          ------
  autoz: The atoms group into disjoint clusters
 cluster   1:    1    2
 cluster   2:    3
 Connecting clusters   1   2 via atoms    1    3 r = 1.88
  autoz: regenerating connections with new bonds
  no constraints, skipping    0.0000000000000000     
  no constraints, skipping    0.0000000000000000     


                             Geometry "geometry" -> ""
                             -------------------------

 Output coordinates in angstroms (scale by  1.889725989 to convert to a.u.)

  No.       Tag          Charge          X              Y              Z
 ---- ---------------- ---------- -------------- -------------- --------------
    1 O                    8.0000    -0.09477214     0.19822097     0.00000000
    2 H                    1.0000     0.84947242     0.09380746     0.00000000
    3 H                    1.0000    -0.09129530    -1.67957525     0.00000000

      Atomic Mass 
      ----------- 

      O                 15.994910
      H                  1.007825


 Effective nuclear repulsion energy (a.u.)       6.9742907168

            Nuclear Dipole moment (a.u.) 
            ----------------------------
        X                 Y               Z
 ---------------- ---------------- ----------------
     0.0000000000     0.0000000000     0.0000000000

      Symmetry information
      --------------------

 Group name             Cs        
 Group number              2
 Group order               2
 No. of unique centers     3

      Symmetry unique atoms

     1    2    3



                                Z-matrix (autoz)
                                -------- 

 Units are Angstrom for bonds and degrees for angles

      Type          Name      I     J     K     L     M      Value
      ----------- --------  ----- ----- ----- ----- ----- ----------
    1 Stretch                  1     3                       1.87780
    2 Stretch                  1     2                       0.95000
    3 Bend                     2     1     3                83.58385


            XYZ format geometry
            -------------------
     3
 geometry
 O                    -0.09477214     0.19822097     0.00000000
 H                     0.84947242     0.09380746     0.00000000
 H                    -0.09129530    -1.67957525     0.00000000

 ==============================================================================
                                internuclear distances
 ------------------------------------------------------------------------------
       center one      |      center two      | atomic units |  angstroms
 ------------------------------------------------------------------------------
    2 H                |   1 O                |     1.79524  |     0.95000
 ------------------------------------------------------------------------------
                         number of included internuclear distances:          1
 ==============================================================================





 Summary of "ao basis" -> "" (cartesian)
 ------------------------------------------------------------------------------
       Tag                 Description            Shells   Functions and Types
 ---------------- ------------------------------  ------  ---------------------
 *                           6-31G*                   on all atoms 




                           NWChem Geometry Optimization
                           ----------------------------




                                      Título


  no constraints, skipping    0.0000000000000000     
 maximum gradient threshold         (gmax) =   0.000450
 rms gradient threshold             (grms) =   0.000300
 maximum cartesian step threshold   (xmax) =   0.001800
 rms cartesian step threshold       (xrms) =   0.001200
 fixed trust radius                (trust) =   0.300000
 maximum step size to saddle      (sadstp) =   0.100000
 energy precision                  (eprec) =   5.0D-06
 maximum number of steps          (nptopt) =   20
 initial hessian option           (inhess) =    0
 line search option               (linopt) =    1
 hessian update option            (modupd) =    1
 saddle point option              (modsad) =    0
 initial eigen-mode to follow     (moddir) =    0
 initial variable to follow       (vardir) =    0
 follow first negative mode     (firstneg) =    T
 apply conjugacy                    (opcg) =    F
 source of zmatrix                         =   autoz   


          -------------------
          Energy Minimization
          -------------------


 Names of Z-matrix variables 
    1              2              3         

 Variables with the same non-blank name are constrained to be equal


 Using old Hessian from previous optimization

          --------
          Step   0
          --------


                         Geometry "geometry" -> "geometry"
                         ---------------------------------

 Output coordinates in angstroms (scale by  1.889725989 to convert to a.u.)

  No.       Tag          Charge          X              Y              Z
 ---- ---------------- ---------- -------------- -------------- --------------
    1 O                    8.0000    -0.09477214     0.19822097     0.00000000
    2 H                    1.0000     0.84947242     0.09380746     0.00000000
    3 H                    1.0000    -0.09129530    -1.67957525     0.00000000

      Atomic Mass 
      ----------- 

      O                 15.994910
      H                  1.007825


 Effective nuclear repulsion energy (a.u.)       6.9742907168

            Nuclear Dipole moment (a.u.) 
            ----------------------------
        X                 Y               Z
 ---------------- ---------------- ----------------
     0.0000000000     0.0000000000     0.0000000000

      Symmetry information
      --------------------

 Group name             Cs        
 Group number              2
 Group order               2
 No. of unique centers     3

      Symmetry unique atoms

     1    2    3


                                 NWChem DFT Module
                                 -----------------


                                      Título


                      Basis "ao basis" -> "ao basis" (cartesian)
                      -----
  O (Oxygen)
  ----------
            Exponent  Coefficients 
       -------------- ---------------------------------------------------------
  1 S  5.48467170E+03  0.001831
  1 S  8.25234950E+02  0.013950
  1 S  1.88046960E+02  0.068445
  1 S  5.29645000E+01  0.232714
  1 S  1.68975700E+01  0.470193
  1 S  5.79963530E+00  0.358521

  2 S  1.55396160E+01 -0.110778
  2 S  3.59993360E+00 -0.148026
  2 S  1.01376180E+00  1.130767

  3 P  1.55396160E+01  0.070874
  3 P  3.59993360E+00  0.339753
  3 P  1.01376180E+00  0.727159

  4 S  2.70005800E-01  1.000000

  5 P  2.70005800E-01  1.000000

  6 D  8.00000000E-01  1.000000

  H (Hydrogen)
  ------------
            Exponent  Coefficients 
       -------------- ---------------------------------------------------------
  1 S  1.87311370E+01  0.033495
  1 S  2.82539370E+00  0.234727
  1 S  6.40121700E-01  0.813757

  2 S  1.61277800E-01  1.000000



 Summary of "ao basis" -> "ao basis" (cartesian)
 ------------------------------------------------------------------------------
       Tag                 Description            Shells   Functions and Types
 ---------------- ------------------------------  ------  ---------------------
 O                           6-31G*                  6       15   3s2p1d
 H                           6-31G*                  2        2   2s




 Summary of "ao basis" -> "ao basis" (cartesian)
 ------------------------------------------------------------------------------
       Tag                 Description            Shells   Functions and Types
 ---------------- ------------------------------  ------  ---------------------
 O                           6-31G*                  6       15   3s2p1d
 H                           6-31G*                  2        2   2s


      Symmetry analysis of basis
      --------------------------

        a'         15
        a"          4

  Caching 1-el integrals 

            General Information
            -------------------
          SCF calculation type: DFT
          Wavefunction type:  closed shell.
          No. of atoms     :     3
          No. of electrons :    10
           Alpha electrons :     5
            Beta electrons :     5
          Charge           :     0
          Spin multiplicity:     1
          Use of symmetry is: on ; symmetry adaption is: on 
          Maximum number of iterations:  30
          AO basis - number of functions:    19
                     number of shells:    10
          Convergence on energy requested:  1.00D-06
          Convergence on density requested:  1.00D-05
          Convergence on gradient requested:  5.00D-04

              XC Information
              --------------
                         B3LYP Method XC Potential
                     Hartree-Fock (Exact) Exchange  0.200          
                        Slater Exchange Functional  0.800 local    
                    Becke 1988 Exchange Functional  0.720 non-local
              Lee-Yang-Parr Correlation Functional  0.810          
                  VWN I RPA Correlation Functional  0.190 local    

             Grid Information
             ----------------
          Grid used for XC integration:  medium    
          Radial quadrature: Mura-Knowles        
          Angular quadrature: Lebedev. 
          Tag              B.-S. Rad. Rad. Pts. Rad. Cut. Ang. Pts.
          ---              ---------- --------- --------- ---------
          O                   0.60       49           6.0       434
          H                   0.35       45           7.0       434
          Grid pruning is: on 
          Number of quadrature shells:   139
          Spatial weights used:  Erf1

          Convergence Information
          -----------------------
          Convergence aids based upon iterative change in 
          total energy or number of iterations. 
          Levelshifting, if invoked, occurs when the 
          HOMO/LUMO gap drops below (HL_TOL):  1.00D-02
          DIIS, if invoked, will attempt to extrapolate 
          using up to (NFOCK): 10 stored Fock matrices.

                    Damping( 0%)  Levelshifting(0.5)       DIIS
                  --------------- ------------------- ---------------
          dE  on:    start            ASAP                start   
          dE off:    2 iters         30 iters            30 iters 


      Screening Tolerance Information
      -------------------------------
          Density screening/tol_rho:  1.00D-10
          AO Gaussian exp screening on grid/accAOfunc:  14
          CD Gaussian exp screening on grid/accCDfunc:  20
          XC Gaussian exp screening on grid/accXCfunc:  20
          Schwarz screening/accCoul:  1.00D-08


      Superposition of Atomic Density Guess
      -------------------------------------

 Sum of atomic energies:         -75.75081731

      Non-variational initial energy
      ------------------------------

 Total energy =     -75.463363
 1-e energy   =    -117.698652
 2-e energy   =      35.260998
 HOMO         =      -0.423151
 LUMO         =      -0.135187


      Symmetry analysis of molecular orbitals - initial
      -------------------------------------------------

  Numbering of irreducible representations: 

     1 a'          2 a"      

  Orbital symmetries:

     1 a'          2 a'          3 a'          4 a'          5 a"      
     6 a'          7 a'          8 a'          9 a'         10 a'      
    11 a"         12 a'         13 a'         14 a'         15 a"      

   Time after variat. SCF:      0.1
   Time prior to 1st pass:      0.1

 #quartets = 1.540D+03 #integrals = 8.932D+03 #direct =  0.0% #cached =100.0%


 Integral file          = ./molecule.aoints.0
 Record size in doubles =  65536        No. of integs per rec  =  43688
 Max. records in memory =      2        Max. records in file   =  48010
 No. of bits per label  =      8        No. of bits per value  =     64


 Grid_pts file          = ./molecule.gridpts.0
 Record size in doubles =  12289        No. of grid_pts per rec  =   3070
 Max. records in memory =     23        Max. recs in file   =    256038


           Memory utilization after 1st SCF pass: 
           Heap Space remaining (MW):      261.73           261728638
          Stack Space remaining (MW):      262.14           262143764

   convergence    iter        energy       DeltaE   RMS-Dens  Diis-err    time
 ---------------- ----- ----------------- --------- --------- ---------  ------
 d= 0,ls=0.0,diis     1    -76.0813278522 -8.31D+01  1.09D-01  8.26D-01     0.2
 d= 0,ls=0.0,diis     2    -75.4477132859  6.34D-01  7.46D-02  4.95D+00     0.2
 d= 0,ls=0.0,diis     3    -76.2418726254 -7.94D-01  4.89D-03  4.77D-02     0.2
 d= 0,ls=0.0,diis     4    -76.2473348680 -5.46D-03  2.31D-03  6.49D-03     0.2
 d= 0,ls=0.0,diis     5    -76.2482398107 -9.05D-04  3.07D-04  6.30D-05     0.2
  Resetting Diis
 d= 0,ls=0.0,diis     6    -76.2482437565 -3.95D-06  1.48D-04  1.81D-05     0.2
 d= 0,ls=0.0,diis     7    -76.2482464789 -2.72D-06  7.64D-05  3.07D-07     0.3
 d= 0,ls=0.0,diis     8    -76.2482459172  5.62D-07  5.49D-05  4.55D-06     0.3
 d= 0,ls=0.0,diis     9    -76.2482465261 -6.09D-07  4.04D-06  1.46D-08     0.3


         Total DFT energy =      -76.248246526069
      One electron energy =     -118.676002199643
           Coulomb energy =       44.591379256433
    Exchange-Corr. energy =       -9.137914299656
 Nuclear repulsion energy =        6.974290716798

 Numeric. integr. density =       10.000000668306

     Total iterative time =      0.2s



                  Occupations of the irreducible representations
                  ----------------------------------------------

                     irrep           alpha         beta
                     --------     --------     --------
                     a'                4.0          4.0
                     a"                1.0          1.0


                       DFT Final Molecular Orbital Analysis
                       ------------------------------------

 Vector    1  Occ=2.000000D+00  E=-1.918660D+01  Symmetry=a'
              MO Center= -9.5D-02,  2.0D-01, -5.3D-29, r^2= 1.5D-02
   Bfn.  Coefficient  Atom+Function         Bfn.  Coefficient  Atom+Function  
  ----- ------------  ---------------      ----- ------------  ---------------
     1      0.992996  1 O  s                  2      0.026123  1 O  s          

 Vector    2  Occ=2.000000D+00  E=-9.613775D-01  Symmetry=a'
              MO Center=  1.3D-01,  1.6D-01, -2.9D-16, r^2= 4.8D-01
   Bfn.  Coefficient  Atom+Function         Bfn.  Coefficient  Atom+Function  
  ----- ------------  ---------------      ----- ------------  ---------------
     2      0.488329  1 O  s                  6      0.473942  1 O  s          
     1     -0.215828  1 O  s                 16      0.169972  2 H  s          
     3      0.130021  1 O  px                 7      0.059641  1 O  px         

 Vector    3  Occ=2.000000D+00  E=-4.375292D-01  Symmetry=a'
              MO Center= -4.9D-02,  1.8D-01,  6.5D-16, r^2= 7.4D-01
   Bfn.  Coefficient  Atom+Function         Bfn.  Coefficient  Atom+Function  
  ----- ------------  ---------------      ----- ------------  ---------------
     3      0.538587  1 O  px                 6     -0.387924  1 O  s          
     7      0.292899  1 O  px                16      0.268155  2 H  s          
    17      0.192550  2 H  s                  2     -0.169241  1 O  s          
     1      0.085040  1 O  s                 10      0.048512  1 O  dxx        
    19     -0.040490  3 H  s                  4     -0.033054  1 O  py         

 Vector    4  Occ=2.000000D+00  E=-3.445993D-01  Symmetry=a'
              MO Center= -8.2D-02, -5.7D-01,  7.1D-17, r^2= 1.5D+00
   Bfn.  Coefficient  Atom+Function         Bfn.  Coefficient  Atom+Function  
  ----- ------------  ---------------      ----- ------------  ---------------
     4      0.465448  1 O  py                19     -0.397067  3 H  s          
     8      0.334919  1 O  py                18     -0.254907  3 H  s          
     6      0.101706  1 O  s                  2      0.062019  1 O  s          
    11      0.036578  1 O  dxy                3      0.028892  1 O  px         
     1     -0.025388  1 O  s          

 Vector    5  Occ=2.000000D+00  E=-2.945500D-01  Symmetry=a"
              MO Center= -7.8D-02,  1.9D-01, -4.5D-16, r^2= 5.8D-01
   Bfn.  Coefficient  Atom+Function         Bfn.  Coefficient  Atom+Function  
  ----- ------------  ---------------      ----- ------------  ---------------
     5      0.661695  1 O  pz                 9      0.487530  1 O  pz         
    12      0.050479  1 O  dxz        

 Vector    6  Occ=0.000000D+00  E=-1.535049D-01  Symmetry=a'
              MO Center= -7.2D-02, -9.1D-01, -8.1D-18, r^2= 1.8D+00
   Bfn.  Coefficient  Atom+Function         Bfn.  Coefficient  Atom+Function  
  ----- ------------  ---------------      ----- ------------  ---------------
    19      0.608355  3 H  s                  4      0.467025  1 O  py         
     8      0.396690  1 O  py                18      0.310951  3 H  s          
     6     -0.168816  1 O  s                 17      0.081606  2 H  s          
     2     -0.053086  1 O  s                 11      0.034144  1 O  dxy        
     3      0.031814  1 O  px                 1      0.026460  1 O  s          

 Vector    7  Occ=0.000000D+00  E= 1.044947D-01  Symmetry=a'
              MO Center=  1.1D+00,  8.1D-02, -1.3D-17, r^2= 1.6D+00
   Bfn.  Coefficient  Atom+Function         Bfn.  Coefficient  Atom+Function  
  ----- ------------  ---------------      ----- ------------  ---------------
    17      1.593404  2 H  s                  6     -0.988417  1 O  s          
     7     -0.596757  1 O  px                 3     -0.345733  1 O  px         
    19     -0.172645  3 H  s                 16      0.136375  2 H  s          
     2     -0.086442  1 O  s                 18     -0.076999  3 H  s          
     1      0.073057  1 O  s                 15      0.045188  1 O  dzz        

 Vector    8  Occ=0.000000D+00  E= 7.512204D-01  Symmetry=a'
              MO Center= -1.1D-01, -1.6D+00,  2.5D-16, r^2= 1.6D+00
   Bfn.  Coefficient  Atom+Function         Bfn.  Coefficient  Atom+Function  
  ----- ------------  ---------------      ----- ------------  ---------------
    19     -1.241477  3 H  s                 18      1.224812  3 H  s          
     8     -0.336764  1 O  py                 3     -0.238159  1 O  px         
     4      0.155686  1 O  py                 7      0.145731  1 O  px         
    16      0.111138  2 H  s                  6      0.099243  1 O  s          
     2      0.031549  1 O  s                 15     -0.027806  1 O  dzz        

 Vector    9  Occ=0.000000D+00  E= 8.375571D-01  Symmetry=a'
              MO Center=  5.1D-01,  1.6D-01, -6.8D-16, r^2= 1.3D+00
   Bfn.  Coefficient  Atom+Function         Bfn.  Coefficient  Atom+Function  
  ----- ------------  ---------------      ----- ------------  ---------------
    16      1.111331  2 H  s                 17     -0.783236  2 H  s          
     3     -0.384767  1 O  px                19      0.369679  3 H  s          
     4      0.322302  1 O  py                18     -0.282977  3 H  s          
     6     -0.255858  1 O  s                 10      0.236569  1 O  dxx        
     8     -0.226558  1 O  py                 7     -0.134090  1 O  px         

 Vector   10  Occ=0.000000D+00  E= 8.706672D-01  Symmetry=a'
              MO Center= -4.9D-01,  2.6D-01,  1.0D-15, r^2= 1.5D+00
   Bfn.  Coefficient  Atom+Function         Bfn.  Coefficient  Atom+Function  
  ----- ------------  ---------------      ----- ------------  ---------------
     6      1.883661  1 O  s                  2     -1.038048  1 O  s          
     7     -0.630541  1 O  px                 3      0.453363  1 O  px         
    17     -0.435618  2 H  s                 16      0.407026  2 H  s          
    15     -0.362613  1 O  dzz               13     -0.360515  1 O  dyy        
    19     -0.288672  3 H  s                 10     -0.286619  1 O  dxx        

 Vector   11  Occ=0.000000D+00  E= 8.887371D-01  Symmetry=a"
              MO Center= -9.1D-02,  2.0D-01, -2.9D-16, r^2= 1.1D+00
   Bfn.  Coefficient  Atom+Function         Bfn.  Coefficient  Atom+Function  
  ----- ------------  ---------------      ----- ------------  ---------------
     9      1.047590  1 O  pz                 5     -0.947720  1 O  pz         
    12      0.025336  1 O  dxz        

 Vector   12  Occ=0.000000D+00  E= 9.562116D-01  Symmetry=a'
              MO Center= -8.1D-02,  2.5D-03, -2.6D-17, r^2= 1.3D+00
   Bfn.  Coefficient  Atom+Function         Bfn.  Coefficient  Atom+Function  
  ----- ------------  ---------------      ----- ------------  ---------------
     8      1.039864  1 O  py                 4     -0.853640  1 O  py         
    17     -0.407846  2 H  s                  3     -0.404998  1 O  px         
     7      0.391668  1 O  px                19      0.325553  3 H  s          
    16      0.284436  2 H  s                  6     -0.170811  1 O  s          
     2      0.118755  1 O  s                 10      0.100764  1 O  dxx        

 Vector   13  Occ=0.000000D+00  E= 1.123328D+00  Symmetry=a'
              MO Center=  3.6D-01,  6.0D-02, -1.9D-16, r^2= 1.4D+00
   Bfn.  Coefficient  Atom+Function         Bfn.  Coefficient  Atom+Function  
  ----- ------------  ---------------      ----- ------------  ---------------
     6      2.766406  1 O  s                  7      1.380270  1 O  px         
    17     -1.234990  2 H  s                  2     -1.182283  1 O  s          
     3     -0.634521  1 O  px                10     -0.453881  1 O  dxx        
    13     -0.286250  1 O  dyy               15     -0.274897  1 O  dzz        
     8     -0.265492  1 O  py                16     -0.263882  2 H  s          

 Vector   14  Occ=0.000000D+00  E= 1.741179D+00  Symmetry=a'
              MO Center= -1.1D-01,  2.0D-01,  9.4D-19, r^2= 6.1D-01
   Bfn.  Coefficient  Atom+Function         Bfn.  Coefficient  Atom+Function  
  ----- ------------  ---------------      ----- ------------  ---------------
    11      1.692483  1 O  dxy               10      0.185839  1 O  dxx        
    13     -0.178621  1 O  dyy        

 Vector   15  Occ=0.000000D+00  E= 1.764424D+00  Symmetry=a"
              MO Center= -1.2D-01,  2.0D-01,  1.2D-17, r^2= 6.1D-01
   Bfn.  Coefficient  Atom+Function         Bfn.  Coefficient  Atom+Function  
  ----- ------------  ---------------      ----- ------------  ---------------
    12      1.719624  1 O  dxz               14     -0.198938  1 O  dyz        
     9     -0.030097  1 O  pz         

 Vector   16  Occ=0.000000D+00  E= 1.805098D+00  Symmetry=a"
              MO Center= -9.5D-02,  2.0D-01, -6.3D-22, r^2= 6.1D-01
   Bfn.  Coefficient  Atom+Function         Bfn.  Coefficient  Atom+Function  
  ----- ------------  ---------------      ----- ------------  ---------------
    14      1.720539  1 O  dyz               12      0.199260  1 O  dxz        

 Vector   17  Occ=0.000000D+00  E= 1.815140D+00  Symmetry=a'
              MO Center= -9.6D-02,  1.8D-01, -8.0D-17, r^2= 6.4D-01
   Bfn.  Coefficient  Atom+Function         Bfn.  Coefficient  Atom+Function  
  ----- ------------  ---------------      ----- ------------  ---------------
    13      0.890207  1 O  dyy               15     -0.836508  1 O  dzz        
    11      0.179772  1 O  dxy               19     -0.089006  3 H  s          
     8     -0.054456  1 O  py                17      0.045225  2 H  s          
     7     -0.041654  1 O  px                 4      0.033143  1 O  py         
     2     -0.026800  1 O  s          

 Vector   18  Occ=0.000000D+00  E= 2.479498D+00  Symmetry=a'
              MO Center=  5.9D-02,  1.8D-01,  6.6D-19, r^2= 8.3D-01
   Bfn.  Coefficient  Atom+Function         Bfn.  Coefficient  Atom+Function  
  ----- ------------  ---------------      ----- ------------  ---------------
    16      1.289255  2 H  s                 10     -1.104271  1 O  dxx        
     6     -1.077819  1 O  s                  7     -0.843825  1 O  px         
    15      0.708669  1 O  dzz               13      0.637618  1 O  dyy        
    11      0.387548  1 O  dxy                2      0.322444  1 O  s          
     8      0.118901  1 O  py                17      0.104172  2 H  s          

 Vector   19  Occ=0.000000D+00  E= 3.433083D+00  Symmetry=a'
              MO Center= -1.0D-01,  2.0D-01,  7.3D-19, r^2= 9.5D-01
   Bfn.  Coefficient  Atom+Function         Bfn.  Coefficient  Atom+Function  
  ----- ------------  ---------------      ----- ------------  ---------------
     6      3.120326  1 O  s                 15     -1.482828  1 O  dzz        
    10     -1.468909  1 O  dxx               13     -1.446783  1 O  dyy        
    17     -0.632192  2 H  s                  1     -0.442752  1 O  s          
     2      0.427497  1 O  s                  7      0.289266  1 O  px         
    16      0.160511  2 H  s                  3     -0.109510  1 O  px         


 center of mass
 --------------
 x =  -0.07887729 y =   0.16497605 z =   0.00000000

 moments of inertia (a.u.)
 ------------------
          11.938468144732           0.000000000000           0.000000000000
           0.000000000000           3.028026200536           0.000000000000
           0.000000000000           0.000000000000          14.966494345268

     Multipole analysis of the density
     ---------------------------------

     L   x y z        total         alpha         beta         nuclear
     -   - - -        -----         -----         ----         -------
     0   0 0 0     -0.000000     -5.000000     -5.000000     10.000000

     1   1 0 0      0.668260      0.334130      0.334130      0.000000
     1   0 1 0     -0.583899     -0.291950     -0.291950      0.000000
     1   0 0 1      0.000000      0.000000      0.000000      0.000000

     2   2 0 0     -4.341417     -3.602334     -3.602334      2.863252
     2   1 1 0      0.222084     -0.036688     -0.036688      0.295461
     2   1 0 1      0.000000      0.000000      0.000000      0.000000
     2   0 2 0     -3.099881     -7.163842     -7.163842     11.227802
     2   0 1 1      0.000000      0.000000      0.000000      0.000000
     2   0 0 2     -5.737268     -2.868634     -2.868634      0.000000


 Parallel integral file used       1 records with       0 large values


            General Information
            -------------------
          SCF calculation type: DFT
          Wavefunction type:  closed shell.
          No. of atoms     :     3
          No. of electrons :    10
           Alpha electrons :     5
            Beta electrons :     5
          Charge           :     0
          Spin multiplicity:     1
          Use of symmetry is: on ; symmetry adaption is: on 
          Maximum number of iterations:  30
          AO basis - number of functions:    19
                     number of shells:    10
          Convergence on energy requested:  1.00D-06
          Convergence on density requested:  1.00D-05
          Convergence on gradient requested:  5.00D-04

              XC Information
              --------------
                         B3LYP Method XC Potential
                     Hartree-Fock (Exact) Exchange  0.200          
                        Slater Exchange Functional  0.800 local    
                    Becke 1988 Exchange Functional  0.720 non-local
              Lee-Yang-Parr Correlation Functional  0.810          
                  VWN I RPA Correlation Functional  0.190 local    

             Grid Information
             ----------------
          Grid used for XC integration:  medium    
          Radial quadrature: Mura-Knowles        
          Angular quadrature: Lebedev. 
          Tag              B.-S. Rad. Rad. Pts. Rad. Cut. Ang. Pts.
          ---              ---------- --------- --------- ---------
          O                   0.60       49           6.0       434
          H                   0.35       45           7.0       434
          Grid pruning is: on 
          Number of quadrature shells:   139
          Spatial weights used:  Erf1

          Convergence Information
          -----------------------
          Convergence aids based upon iterative change in 
          total energy or number of iterations. 
          Levelshifting, if invoked, occurs when the 
          HOMO/LUMO gap drops below (HL_TOL):  1.00D-02
          DIIS, if invoked, will attempt to extrapolate 
          using up to (NFOCK): 10 stored Fock matrices.

                    Damping( 0%)  Levelshifting(0.5)       DIIS
                  --------------- ------------------- ---------------
          dE  on:    start            ASAP                start   
          dE off:    2 iters         30 iters            30 iters 


      Screening Tolerance Information
      -------------------------------
          Density screening/tol_rho:  1.00D-10
          AO Gaussian exp screening on grid/accAOfunc:  14
          CD Gaussian exp screening on grid/accCDfunc:  20
          XC Gaussian exp screening on grid/accXCfunc:  20
          Schwarz screening/accCoul:  1.00D-08



                            NWChem DFT Gradient Module
                            --------------------------


                                      Título



  charge          =   0.00
  wavefunction    = closed shell

  Using symmetry


                         DFT ENERGY GRADIENTS

    atom               coordinates                        gradient
                 x          y          z           x          y          z
   1 O      -0.179093   0.374583   0.000000    0.026816   0.082030   0.000000
   2 H       1.605270   0.177270   0.000000   -0.030509  -0.003683   0.000000
   3 H      -0.172523  -3.173937   0.000000    0.003692  -0.078347   0.000000

                 ----------------------------------------
                 |  Time  |  1-e(secs)   |  2-e(secs)   |
                 ----------------------------------------
                 |  CPU   |       0.00   |       0.11   |
                 ----------------------------------------
                 |  WALL  |       0.00   |       0.03   |
                 ----------------------------------------
  no constraints, skipping    0.0000000000000000     

@ Step       Energy      Delta E   Gmax     Grms     Xrms     Xmax   Walltime
@ ---- ---------------- -------- -------- -------- -------- -------- --------
@    0     -76.24824653  0.0D+00  0.07835  0.04858  0.00000  0.00000      0.4
                                                                    



                                Z-matrix (autoz)
                                -------- 

 Units are Angstrom for bonds and degrees for angles

      Type          Name      I     J     K     L     M      Value     Gradient
      ----------- --------  ----- ----- ----- ----- ----- ---------- ----------
    1 Stretch                  1     3                       1.87780    0.07835
    2 Stretch                  1     2                       0.95000   -0.02992
    3 Bend                     2     1     3                83.58385   -0.00666

  no constraints, skipping    0.0000000000000000     
  no constraints, skipping    0.0000000000000000     
  no constraints, skipping    0.0000000000000000     
  no constraints, skipping    0.0000000000000000     
  no constraints, skipping    0.0000000000000000     

                                 NWChem DFT Module
                                 -----------------


                                      Título




 Summary of "ao basis" -> "ao basis" (cartesian)
 ------------------------------------------------------------------------------
       Tag                 Description            Shells   Functions and Types
 ---------------- ------------------------------  ------  ---------------------
 O                           6-31G*                  6       15   3s2p1d
 H                           6-31G*                  2        2   2s


      Symmetry analysis of basis
      --------------------------

        a'         15
        a"          4

  Caching 1-el integrals 

            General Information
            -------------------
          SCF calculation type: DFT
          Wavefunction type:  closed shell.
          No. of atoms     :     3
          No. of electrons :    10
           Alpha electrons :     5
            Beta electrons :     5
          Charge           :     0
          Spin multiplicity:     1
          Use of symmetry is: on ; symmetry adaption is: on 
          Maximum number of iterations:  30
          AO basis - number of functions:    19
                     number of shells:    10
          Convergence on energy requested:  1.00D-06
          Convergence on density requested:  1.00D-05
          Convergence on gradient requested:  5.00D-04

              XC Information
              --------------
                         B3LYP Method XC Potential
                     Hartree-Fock (Exact) Exchange  0.200          
                        Slater Exchange Functional  0.800 local    
                    Becke 1988 Exchange Functional  0.720 non-local
              Lee-Yang-Parr Correlation Functional  0.810          
                  VWN I RPA Correlation Functional  0.190 local    

             Grid Information
             ----------------
          Grid used for XC integration:  medium    
          Radial quadrature: Mura-Knowles        
          Angular quadrature: Lebedev. 
          Tag              B.-S. Rad. Rad. Pts. Rad. Cut. Ang. Pts.
          ---              ---------- --------- --------- ---------
          O                   0.60       49           6.0       434
          H                   0.35       45           7.0       434
          Grid pruning is: on 
          Number of quadrature shells:   139
          Spatial weights used:  Erf1

          Convergence Information
          -----------------------
          Convergence aids based upon iterative change in 
          total energy or number of iterations. 
          Levelshifting, if invoked, occurs when the 
          HOMO/LUMO gap drops below (HL_TOL):  1.00D-02
          DIIS, if invoked, will attempt to extrapolate 
          using up to (NFOCK): 10 stored Fock matrices.

                    Damping( 0%)  Levelshifting(0.5)       DIIS
                  --------------- ------------------- ---------------
          dE  on:    start            ASAP                start   
          dE off:    2 iters         30 iters            30 iters 


      Screening Tolerance Information
      -------------------------------
          Density screening/tol_rho:  1.00D-10
          AO Gaussian exp screening on grid/accAOfunc:  14
          CD Gaussian exp screening on grid/accCDfunc:  20
          XC Gaussian exp screening on grid/accXCfunc:  20
          Schwarz screening/accCoul:  1.00D-08


 Loading old vectors from job with title :

Título


      Symmetry analysis of molecular orbitals - initial
      -------------------------------------------------

  Numbering of irreducible representations: 

     1 a'          2 a"      

  Orbital symmetries:

     1 a'          2 a'          3 a'          4 a'          5 a"      
     6 a'          7 a'          8 a'          9 a'         10 a'      
    11 a"         12 a'         13 a'         14 a'         15 a"      

   Time after variat. SCF:      0.4
   Time prior to 1st pass:      0.4

 #quartets = 1.540D+03 #integrals = 8.935D+03 #direct =  0.0% #cached =100.0%


 Integral file          = ./molecule.aoints.0
 Record size in doubles =  65536        No. of integs per rec  =  43688
 Max. records in memory =      2        Max. records in file   =  48012
 No. of bits per label  =      8        No. of bits per value  =     64


 Grid_pts file          = ./molecule.gridpts.0
 Record size in doubles =  12289        No. of grid_pts per rec  =   3070
 Max. records in memory =     23        Max. recs in file   =    256048


           Memory utilization after 1st SCF pass: 
           Heap Space remaining (MW):      261.73           261728638
          Stack Space remaining (MW):      262.14           262143764

   convergence    iter        energy       DeltaE   RMS-Dens  Diis-err    time
 ---------------- ----- ----------------- --------- --------- ---------  ------
 d= 0,ls=0.0,diis     1    -76.2619042426 -8.32D+01  4.48D-03  5.03D-03     0.5
 d= 0,ls=0.0,diis     2    -76.2631399436 -1.24D-03  3.24D-03  8.23D-04     0.5
 d= 0,ls=0.0,diis     3    -76.2623903978  7.50D-04  2.07D-03  6.94D-03     0.5
 d= 0,ls=0.0,diis     4    -76.2632801390 -8.90D-04  2.39D-04  3.88D-05     0.5
 d= 0,ls=0.0,diis     5    -76.2632870787 -6.94D-06  3.41D-05  2.65D-07     0.5
 d= 0,ls=0.0,diis     6    -76.2632871478 -6.91D-08  6.19D-06  2.47D-08     0.6


         Total DFT energy =      -76.263287147806
      One electron energy =     -118.705272823940
           Coulomb energy =       44.616332033779
    Exchange-Corr. energy =       -9.133936610435
 Nuclear repulsion energy =        6.959590252790

 Numeric. integr. density =       10.000000048998

     Total iterative time =      0.2s



                  Occupations of the irreducible representations
                  ----------------------------------------------

                     irrep           alpha         beta
                     --------     --------     --------
                     a'                4.0          4.0
                     a"                1.0          1.0


                       DFT Final Molecular Orbital Analysis
                       ------------------------------------

 Vector    1  Occ=2.000000D+00  E=-1.918589D+01  Symmetry=a'
              MO Center= -1.0D-01,  1.4D-01,  1.0D-28, r^2= 1.5D-02
   Bfn.  Coefficient  Atom+Function         Bfn.  Coefficient  Atom+Function  
  ----- ------------  ---------------      ----- ------------  ---------------
     1      0.993005  1 O  s                  2      0.026091  1 O  s          

 Vector    2  Occ=2.000000D+00  E=-9.522819D-01  Symmetry=a'
              MO Center=  1.1D-01,  1.1D-01, -5.8D-17, r^2= 4.9D-01
   Bfn.  Coefficient  Atom+Function         Bfn.  Coefficient  Atom+Function  
  ----- ------------  ---------------      ----- ------------  ---------------
     2      0.489153  1 O  s                  6      0.483402  1 O  s          
     1     -0.216761  1 O  s                 16      0.161219  2 H  s          
     3      0.123129  1 O  px                 7      0.060270  1 O  px         

 Vector    3  Occ=2.000000D+00  E=-4.338309D-01  Symmetry=a'
              MO Center= -3.2D-02,  1.0D-01,  8.5D-17, r^2= 7.9D-01
   Bfn.  Coefficient  Atom+Function         Bfn.  Coefficient  Atom+Function  
  ----- ------------  ---------------      ----- ------------  ---------------
     3      0.533584  1 O  px                 6     -0.365271  1 O  s          
     7      0.294503  1 O  px                16      0.269133  2 H  s          
    17      0.198753  2 H  s                  2     -0.158074  1 O  s          
     1      0.079988  1 O  s                 19     -0.068201  3 H  s          
    10      0.048963  1 O  dxx               18     -0.043932  3 H  s          

 Vector    4  Occ=2.000000D+00  E=-3.480957D-01  Symmetry=a'
              MO Center= -9.4D-02, -5.5D-01,  4.9D-17, r^2= 1.4D+00
   Bfn.  Coefficient  Atom+Function         Bfn.  Coefficient  Atom+Function  
  ----- ------------  ---------------      ----- ------------  ---------------
     4      0.468451  1 O  py                19     -0.380147  3 H  s          
     8      0.334331  1 O  py                18     -0.252374  3 H  s          
     6      0.139577  1 O  s                  2      0.077280  1 O  s          
     3     -0.049124  1 O  px                11      0.037013  1 O  dxy        
     1     -0.033177  1 O  s                  7     -0.031927  1 O  px         

 Vector    5  Occ=2.000000D+00  E=-2.917546D-01  Symmetry=a"
              MO Center= -8.7D-02,  1.4D-01, -6.1D-17, r^2= 5.8D-01
   Bfn.  Coefficient  Atom+Function         Bfn.  Coefficient  Atom+Function  
  ----- ------------  ---------------      ----- ------------  ---------------
     5      0.660911  1 O  pz                 9      0.488442  1 O  pz         
    12      0.048748  1 O  dxz        

 Vector    6  Occ=0.000000D+00  E=-1.378409D-01  Symmetry=a'
              MO Center= -8.4D-02, -9.4D-01, -1.1D-17, r^2= 1.7D+00
   Bfn.  Coefficient  Atom+Function         Bfn.  Coefficient  Atom+Function  
  ----- ------------  ---------------      ----- ------------  ---------------
    19      0.637409  3 H  s                  4      0.465493  1 O  py         
     8      0.406877  1 O  py                18      0.308958  3 H  s          
     6     -0.208409  1 O  s                 17      0.094053  2 H  s          
     2     -0.060958  1 O  s                 11      0.032714  1 O  dxy        
     1      0.031587  1 O  s          

 Vector    7  Occ=0.000000D+00  E= 9.737268D-02  Symmetry=a'
              MO Center=  1.0D+00,  1.2D-01, -2.8D-17, r^2= 1.6D+00
   Bfn.  Coefficient  Atom+Function         Bfn.  Coefficient  Atom+Function  
  ----- ------------  ---------------      ----- ------------  ---------------
    17      1.532937  2 H  s                  6     -0.927459  1 O  s          
     7     -0.594914  1 O  px                 3     -0.357052  1 O  px         
    19     -0.160712  3 H  s                 16      0.146777  2 H  s          
     2     -0.086331  1 O  s                 18     -0.075497  3 H  s          
     1      0.070722  1 O  s                  4     -0.045611  1 O  py         

 Vector    8  Occ=0.000000D+00  E= 7.416367D-01  Symmetry=a'
              MO Center= -9.9D-02, -1.6D+00, -4.2D-17, r^2= 1.6D+00
   Bfn.  Coefficient  Atom+Function         Bfn.  Coefficient  Atom+Function  
  ----- ------------  ---------------      ----- ------------  ---------------
    19     -1.265717  3 H  s                 18      1.199170  3 H  s          
     8     -0.411695  1 O  py                 6      0.279905  1 O  s          
     3     -0.228617  1 O  px                 4      0.216090  1 O  py         
    16      0.168781  2 H  s                  7      0.122461  1 O  px         
    15     -0.062282  1 O  dzz                2     -0.052584  1 O  s          

 Vector    9  Occ=0.000000D+00  E= 8.180698D-01  Symmetry=a'
              MO Center=  5.9D-01,  7.9D-02, -7.1D-16, r^2= 1.4D+00
   Bfn.  Coefficient  Atom+Function         Bfn.  Coefficient  Atom+Function  
  ----- ------------  ---------------      ----- ------------  ---------------
    16      1.144828  2 H  s                 17     -0.902891  2 H  s          
    19      0.428247  3 H  s                  3     -0.376415  1 O  px         
    18     -0.313692  3 H  s                 10      0.216033  1 O  dxx        
     4      0.183046  1 O  py                 8     -0.113770  1 O  py         
     7     -0.099223  1 O  px                13     -0.074918  1 O  dyy        

 Vector   10  Occ=0.000000D+00  E= 8.720370D-01  Symmetry=a'
              MO Center= -5.2D-01,  2.5D-01,  1.0D-14, r^2= 1.4D+00
   Bfn.  Coefficient  Atom+Function         Bfn.  Coefficient  Atom+Function  
  ----- ------------  ---------------      ----- ------------  ---------------
     6      1.927973  1 O  s                  2     -1.047820  1 O  s          
     7     -0.604326  1 O  px                 3      0.492240  1 O  px         
    17     -0.388097  2 H  s                 15     -0.360532  1 O  dzz        
    13     -0.355307  1 O  dyy               10     -0.306823  1 O  dxx        
    16      0.303392  2 H  s                 19     -0.285281  3 H  s          

 Vector   11  Occ=0.000000D+00  E= 8.896788D-01  Symmetry=a"
              MO Center= -1.0D-01,  1.4D-01, -9.6D-15, r^2= 1.1D+00
   Bfn.  Coefficient  Atom+Function         Bfn.  Coefficient  Atom+Function  
  ----- ------------  ---------------      ----- ------------  ---------------
     9      1.047188  1 O  pz                 5     -0.948271  1 O  pz         
    12      0.025245  1 O  dxz        

 Vector   12  Occ=0.000000D+00  E= 9.693270D-01  Symmetry=a'
              MO Center= -1.2D-01, -1.1D-02,  6.1D-17, r^2= 1.3D+00
   Bfn.  Coefficient  Atom+Function         Bfn.  Coefficient  Atom+Function  
  ----- ------------  ---------------      ----- ------------  ---------------
     8      1.053364  1 O  py                 4     -0.872967  1 O  py         
     7      0.450154  1 O  px                 3     -0.379432  1 O  px         
    17     -0.380218  2 H  s                 19      0.224326  3 H  s          
    18      0.192680  3 H  s                 16      0.161716  2 H  s          
     2      0.118074  1 O  s                  6     -0.116935  1 O  s          

 Vector   13  Occ=0.000000D+00  E= 1.127369D+00  Symmetry=a'
              MO Center=  3.4D-01, -6.7D-03,  3.9D-17, r^2= 1.4D+00
   Bfn.  Coefficient  Atom+Function         Bfn.  Coefficient  Atom+Function  
  ----- ------------  ---------------      ----- ------------  ---------------
     6      2.688073  1 O  s                  7      1.355212  1 O  px         
     2     -1.167822  1 O  s                 17     -1.136820  2 H  s          
     3     -0.625740  1 O  px                10     -0.465396  1 O  dxx        
    16     -0.297153  2 H  s                 13     -0.287437  1 O  dyy        
    15     -0.258335  1 O  dzz               18     -0.221257  3 H  s          

 Vector   14  Occ=0.000000D+00  E= 1.745790D+00  Symmetry=a'
              MO Center= -1.2D-01,  1.5D-01, -6.5D-19, r^2= 6.1D-01
   Bfn.  Coefficient  Atom+Function         Bfn.  Coefficient  Atom+Function  
  ----- ------------  ---------------      ----- ------------  ---------------
    11      1.729745  1 O  dxy               13     -0.035938  1 O  dyy        
     8     -0.034612  1 O  py                10      0.029556  1 O  dxx        

 Vector   15  Occ=0.000000D+00  E= 1.769810D+00  Symmetry=a"
              MO Center= -1.2D-01,  1.4D-01,  5.3D-18, r^2= 6.1D-01
   Bfn.  Coefficient  Atom+Function         Bfn.  Coefficient  Atom+Function  
  ----- ------------  ---------------      ----- ------------  ---------------
    12      1.731180  1 O  dxz                9     -0.029028  1 O  pz         

 Vector   16  Occ=0.000000D+00  E= 1.807049D+00  Symmetry=a"
              MO Center= -1.0D-01,  1.5D-01, -2.1D-21, r^2= 6.1D-01
   Bfn.  Coefficient  Atom+Function         Bfn.  Coefficient  Atom+Function  
  ----- ------------  ---------------      ----- ------------  ---------------
    14      1.732019  1 O  dyz        

 Vector   17  Occ=0.000000D+00  E= 1.820304D+00  Symmetry=a'
              MO Center= -1.0D-01,  1.2D-01,  3.6D-17, r^2= 6.4D-01
   Bfn.  Coefficient  Atom+Function         Bfn.  Coefficient  Atom+Function  
  ----- ------------  ---------------      ----- ------------  ---------------
    13      0.900179  1 O  dyy               15     -0.833775  1 O  dzz        
     8     -0.067602  1 O  py                18     -0.062908  3 H  s          
    19     -0.061616  3 H  s                  2     -0.043541  1 O  s          
     4      0.042629  1 O  py                11      0.042078  1 O  dxy        
     7     -0.031800  1 O  px                17      0.029401  2 H  s          

 Vector   18  Occ=0.000000D+00  E= 2.437036D+00  Symmetry=a'
              MO Center=  5.9D-02,  1.4D-01,  5.9D-19, r^2= 8.2D-01
   Bfn.  Coefficient  Atom+Function         Bfn.  Coefficient  Atom+Function  
  ----- ------------  ---------------      ----- ------------  ---------------
    16      1.213924  2 H  s                 10     -1.101760  1 O  dxx        
     6     -1.007812  1 O  s                  7     -0.800961  1 O  px         
    15      0.698615  1 O  dzz               13      0.644020  1 O  dyy        
     2      0.324970  1 O  s                 17      0.073676  2 H  s          
     3      0.069264  1 O  px                11      0.066618  1 O  dxy        

 Vector   19  Occ=0.000000D+00  E= 3.435974D+00  Symmetry=a'
              MO Center= -1.1D-01,  1.4D-01, -7.5D-19, r^2= 9.6D-01
   Bfn.  Coefficient  Atom+Function         Bfn.  Coefficient  Atom+Function  
  ----- ------------  ---------------      ----- ------------  ---------------
     6      3.115681  1 O  s                 15     -1.491780  1 O  dzz        
    10     -1.461095  1 O  dxx               13     -1.445263  1 O  dyy        
    17     -0.606103  2 H  s                  1     -0.442971  1 O  s          
     2      0.426916  1 O  s                  7      0.289588  1 O  px         
    16      0.139783  2 H  s                  3     -0.104350  1 O  px         


 center of mass
 --------------
 x =  -0.09232262 y =   0.07562548 z =   0.00000000

 moments of inertia (a.u.)
 ------------------
          10.887679706813          -0.302710990626           0.000000000000
          -0.302710990626           3.240580602731           0.000000000000
           0.000000000000           0.000000000000          14.128260309545

     Multipole analysis of the density
     ---------------------------------

     L   x y z        total         alpha         beta         nuclear
     -   - - -        -----         -----         ----         -------
     0   0 0 0     -0.000000     -5.000000     -5.000000     10.000000

     1   1 0 0      0.665212      0.389158      0.389158     -0.113104
     1   0 1 0     -0.555198      0.098217      0.098217     -0.751632
     1   0 0 1      0.000000      0.000000      0.000000      0.000000

     2   2 0 0     -4.301884     -3.684784     -3.684784      3.067685
     2   1 1 0      0.284216     -0.151004     -0.151004      0.586224
     2   1 0 1      0.000000      0.000000      0.000000      0.000000
     2   0 2 0     -3.021538     -6.682461     -6.682461     10.343384
     2   0 1 1      0.000000      0.000000      0.000000      0.000000
     2   0 0 2     -5.740823     -2.870411     -2.870411      0.000000


 Parallel integral file used       1 records with       0 large values

 Line search: 
     step= 1.00 grad=-1.5D-02 hess= 4.5D-04 energy=    -76.263287 mode=restrict
 new step= 4.00                   predicted energy=    -76.302974
  no constraints, skipping    0.0000000000000000     
  no constraints, skipping    0.0000000000000000     
  no constraints, skipping    0.0000000000000000     
  no constraints, skipping    0.0000000000000000     
  no constraints, skipping    0.0000000000000000     

          --------
          Step   1
          --------


                         Geometry "geometry" -> "geometry"
                         ---------------------------------

 Output coordinates in angstroms (scale by  1.889725989 to convert to a.u.)

  No.       Tag          Charge          X              Y              Z
 ---- ---------------- ---------- -------------- -------------- --------------
    1 O                    8.0000    -0.10461203    -0.03060364     0.00000000
    2 H                    1.0000     0.92555234     0.20420958     0.00000000
    3 H                    1.0000    -0.15753533    -1.56115276     0.00000000

      Atomic Mass 
      ----------- 

      O                 15.994910
      H                  1.007825


 Effective nuclear repulsion energy (a.u.)       7.0264884478

            Nuclear Dipole moment (a.u.) 
            ----------------------------
        X                 Y               Z
 ---------------- ---------------- ----------------
    -0.1301628274    -3.0269107039     0.0000000000

      Symmetry information
      --------------------

 Group name             Cs        
 Group number              2
 Group order               2
 No. of unique centers     3

      Symmetry unique atoms

     1    2    3


                                 NWChem DFT Module
                                 -----------------


                                      Título




 Summary of "ao basis" -> "ao basis" (cartesian)
 ------------------------------------------------------------------------------
       Tag                 Description            Shells   Functions and Types
 ---------------- ------------------------------  ------  ---------------------
 O                           6-31G*                  6       15   3s2p1d
 H                           6-31G*                  2        2   2s


      Symmetry analysis of basis
      --------------------------

        a'         15
        a"          4

  Caching 1-el integrals 

            General Information
            -------------------
          SCF calculation type: DFT
          Wavefunction type:  closed shell.
          No. of atoms     :     3
          No. of electrons :    10
           Alpha electrons :     5
            Beta electrons :     5
          Charge           :     0
          Spin multiplicity:     1
          Use of symmetry is: on ; symmetry adaption is: on 
          Maximum number of iterations:  30
          AO basis - number of functions:    19
                     number of shells:    10
          Convergence on energy requested:  1.00D-06
          Convergence on density requested:  1.00D-05
          Convergence on gradient requested:  5.00D-04

              XC Information
              --------------
                         B3LYP Method XC Potential
                     Hartree-Fock (Exact) Exchange  0.200          
                        Slater Exchange Functional  0.800 local    
                    Becke 1988 Exchange Functional  0.720 non-local
              Lee-Yang-Parr Correlation Functional  0.810          
                  VWN I RPA Correlation Functional  0.190 local    

             Grid Information
             ----------------
          Grid used for XC integration:  medium    
          Radial quadrature: Mura-Knowles        
          Angular quadrature: Lebedev. 
          Tag              B.-S. Rad. Rad. Pts. Rad. Cut. Ang. Pts.
          ---              ---------- --------- --------- ---------
          O                   0.60       49           6.0       434
          H                   0.35       45           7.0       434
          Grid pruning is: on 
          Number of quadrature shells:   139
          Spatial weights used:  Erf1

          Convergence Information
          -----------------------
          Convergence aids based upon iterative change in 
          total energy or number of iterations. 
          Levelshifting, if invoked, occurs when the 
          HOMO/LUMO gap drops below (HL_TOL):  1.00D-02
          DIIS, if invoked, will attempt to extrapolate 
          using up to (NFOCK): 10 stored Fock matrices.

                    Damping( 0%)  Levelshifting(0.5)       DIIS
                  --------------- ------------------- ---------------
          dE  on:    start            ASAP                start   
          dE off:    2 iters         30 iters            30 iters 


      Screening Tolerance Information
      -------------------------------
          Density screening/tol_rho:  1.00D-10
          AO Gaussian exp screening on grid/accAOfunc:  14
          CD Gaussian exp screening on grid/accCDfunc:  20
          XC Gaussian exp screening on grid/accXCfunc:  20
          Schwarz screening/accCoul:  1.00D-08


 Loading old vectors from job with title :

Título


      Symmetry analysis of molecular orbitals - initial
      -------------------------------------------------

  Numbering of irreducible representations: 

     1 a'          2 a"      

  Orbital symmetries:

     1 a'          2 a'          3 a'          4 a'          5 a"      
     6 a'          7 a'          8 a'          9 a'         10 a'      
    11 a"         12 a'         13 a'         14 a'         15 a"      

   Time after variat. SCF:      0.6
   Time prior to 1st pass:      0.6

 #quartets = 1.540D+03 #integrals = 8.940D+03 #direct =  0.0% #cached =100.0%


 Integral file          = ./molecule.aoints.0
 Record size in doubles =  65536        No. of integs per rec  =  43688
 Max. records in memory =      2        Max. records in file   =  48010
 No. of bits per label  =      8        No. of bits per value  =     64


 Grid_pts file          = ./molecule.gridpts.0
 Record size in doubles =  12289        No. of grid_pts per rec  =   3070
 Max. records in memory =     23        Max. recs in file   =    256038


           Memory utilization after 1st SCF pass: 
           Heap Space remaining (MW):      261.73           261728638
          Stack Space remaining (MW):      262.14           262143764

   convergence    iter        energy       DeltaE   RMS-Dens  Diis-err    time
 ---------------- ----- ----------------- --------- --------- ---------  ------
 d= 0,ls=0.0,diis     1    -76.2935180134 -8.33D+01  1.16D-02  3.77D-02     0.6
 d= 0,ls=0.0,diis     2    -76.3027048271 -9.19D-03  6.65D-03  4.82D-03     0.7
 d= 0,ls=0.0,diis     3    -76.3006393462  2.07D-03  3.95D-03  2.46D-02     0.7
 d= 0,ls=0.0,diis     4    -76.3034563976 -2.82D-03  4.25D-04  9.65D-05     0.7
 d= 0,ls=0.0,diis     5    -76.3034742005 -1.78D-05  6.98D-05  1.85D-06     0.7
 d= 0,ls=0.0,diis     6    -76.3034745091 -3.09D-07  1.06D-05  7.53D-08     0.7
 d= 0,ls=0.0,diis     7    -76.3034745196 -1.05D-08  1.36D-06  4.92D-10     0.7


         Total DFT energy =      -76.303474519565
      One electron energy =     -118.991580457700
           Coulomb energy =       44.797806896817
    Exchange-Corr. energy =       -9.136189406490
 Nuclear repulsion energy =        7.026488447809

 Numeric. integr. density =        9.999998440022

     Total iterative time =      0.2s



                  Occupations of the irreducible representations
                  ----------------------------------------------

                     irrep           alpha         beta
                     --------     --------     --------
                     a'                4.0          4.0
                     a"                1.0          1.0


                       DFT Final Molecular Orbital Analysis
                       ------------------------------------

 Vector    1  Occ=2.000000D+00  E=-1.917922D+01  Symmetry=a'
              MO Center= -1.0D-01, -3.1D-02, -2.9D-29, r^2= 1.5D-02
   Bfn.  Coefficient  Atom+Function         Bfn.  Coefficient  Atom+Function  
  ----- ------------  ---------------      ----- ------------  ---------------
     1      0.993018  1 O  s                  2      0.026007  1 O  s          

 Vector    2  Occ=2.000000D+00  E=-9.295475D-01  Symmetry=a'
              MO Center=  7.2D-02, -4.0D-02,  9.5D-17, r^2= 5.1D-01
   Bfn.  Coefficient  Atom+Function         Bfn.  Coefficient  Atom+Function  
  ----- ------------  ---------------      ----- ------------  ---------------
     6      0.506275  1 O  s                  2      0.489933  1 O  s          
     1     -0.219075  1 O  s                 16      0.135782  2 H  s          
     3      0.099717  1 O  px                 7      0.056774  1 O  px         
    18      0.039065  3 H  s          

 Vector    3  Occ=2.000000D+00  E=-4.352236D-01  Symmetry=a'
              MO Center=  3.6D-02, -2.0D-01,  1.2D-16, r^2= 1.0D+00
   Bfn.  Coefficient  Atom+Function         Bfn.  Coefficient  Atom+Function  
  ----- ------------  ---------------      ----- ------------  ---------------
     3      0.435390  1 O  px                 4      0.255022  1 O  py         
    16      0.255209  2 H  s                  7      0.247467  1 O  px         
     6     -0.237095  1 O  s                 17      0.197004  2 H  s          
    19     -0.164898  3 H  s                  8      0.157924  1 O  py         
    18     -0.141018  3 H  s                  2     -0.098033  1 O  s          

 Vector    4  Occ=2.000000D+00  E=-3.488782D-01  Symmetry=a'
              MO Center= -1.1D-01, -3.7D-01,  1.8D-16, r^2= 1.2D+00
   Bfn.  Coefficient  Atom+Function         Bfn.  Coefficient  Atom+Function  
  ----- ------------  ---------------      ----- ------------  ---------------
     4      0.407740  1 O  py                 3     -0.302016  1 O  px         
    19     -0.294430  3 H  s                  8      0.290021  1 O  py         
     6      0.273697  1 O  s                 18     -0.218535  3 H  s          
     7     -0.200285  1 O  px                 2      0.127852  1 O  s          
    17     -0.098067  2 H  s                 16     -0.093890  2 H  s          

 Vector    5  Occ=2.000000D+00  E=-2.833079D-01  Symmetry=a"
              MO Center= -9.0D-02, -3.3D-02, -3.3D-16, r^2= 5.8D-01
   Bfn.  Coefficient  Atom+Function         Bfn.  Coefficient  Atom+Function  
  ----- ------------  ---------------      ----- ------------  ---------------
     5      0.657278  1 O  pz                 9      0.492566  1 O  pz         
    12      0.042538  1 O  dxz        

 Vector    6  Occ=0.000000D+00  E=-8.377553D-02  Symmetry=a'
              MO Center= -9.5D-02, -1.0D+00,  1.7D-17, r^2= 1.6D+00
   Bfn.  Coefficient  Atom+Function         Bfn.  Coefficient  Atom+Function  
  ----- ------------  ---------------      ----- ------------  ---------------
    19      0.757865  3 H  s                  4      0.435124  1 O  py         
     8      0.427402  1 O  py                 6     -0.399243  1 O  s          
    18      0.293194  3 H  s                 17      0.191052  2 H  s          
     7     -0.099644  1 O  px                 2     -0.091282  1 O  s          
     3     -0.079601  1 O  px                 1      0.052942  1 O  s          

 Vector    7  Occ=0.000000D+00  E= 7.864478D-02  Symmetry=a'
              MO Center=  9.5D-01,  1.8D-01,  1.9D-17, r^2= 1.7D+00
   Bfn.  Coefficient  Atom+Function         Bfn.  Coefficient  Atom+Function  
  ----- ------------  ---------------      ----- ------------  ---------------
    17      1.364058  2 H  s                  6     -0.732270  1 O  s          
     7     -0.560827  1 O  px                 3     -0.368660  1 O  px         
     8     -0.211258  1 O  py                19     -0.212151  3 H  s          
    16      0.175485  2 H  s                  4     -0.161797  1 O  py         
     2     -0.079923  1 O  s                 18     -0.079193  3 H  s          

 Vector    8  Occ=0.000000D+00  E= 6.983573D-01  Symmetry=a'
              MO Center= -1.0D-01, -1.5D+00, -2.7D-16, r^2= 1.6D+00
   Bfn.  Coefficient  Atom+Function         Bfn.  Coefficient  Atom+Function  
  ----- ------------  ---------------      ----- ------------  ---------------
    19      1.303869  3 H  s                 18     -1.121409  3 H  s          
     6     -0.566362  1 O  s                  8      0.453118  1 O  py         
    16     -0.276943  2 H  s                  4     -0.268669  1 O  py         
     2      0.185366  1 O  s                  3      0.184105  1 O  px         
    17      0.155346  2 H  s                 15      0.115136  1 O  dzz        

 Vector    9  Occ=0.000000D+00  E= 7.648098D-01  Symmetry=a'
              MO Center=  7.2D-01,  6.0D-02, -3.8D-16, r^2= 1.5D+00
   Bfn.  Coefficient  Atom+Function         Bfn.  Coefficient  Atom+Function  
  ----- ------------  ---------------      ----- ------------  ---------------
    16      1.126681  2 H  s                 17     -1.078619  2 H  s          
    19      0.479532  3 H  s                  3     -0.358689  1 O  px         
    18     -0.324599  3 H  s                 10      0.180488  1 O  dxx        
    11      0.117511  1 O  dxy                6      0.103590  1 O  s          
    13     -0.089367  1 O  dyy                2     -0.071368  1 O  s          

 Vector   10  Occ=0.000000D+00  E= 8.822787D-01  Symmetry=a'
              MO Center= -5.2D-01,  1.6D-01,  1.8D-14, r^2= 1.2D+00
   Bfn.  Coefficient  Atom+Function         Bfn.  Coefficient  Atom+Function  
  ----- ------------  ---------------      ----- ------------  ---------------
     6      1.828955  1 O  s                  2     -0.981962  1 O  s          
     7     -0.613522  1 O  px                 3      0.558408  1 O  px         
    15     -0.334710  1 O  dzz                4     -0.331768  1 O  py         
    17     -0.327178  2 H  s                 13     -0.317720  1 O  dyy        
     8      0.305684  1 O  py                10     -0.299595  1 O  dxx        

 Vector   11  Occ=0.000000D+00  E= 8.927035D-01  Symmetry=a"
              MO Center= -1.0D-01, -3.1D-02, -1.8D-14, r^2= 1.1D+00
   Bfn.  Coefficient  Atom+Function         Bfn.  Coefficient  Atom+Function  
  ----- ------------  ---------------      ----- ------------  ---------------
     9     -1.045347  1 O  pz                 5      0.950797  1 O  pz         

 Vector   12  Occ=0.000000D+00  E= 1.029148D+00  Symmetry=a'
              MO Center= -2.1D-01, -1.2D-01, -7.0D-17, r^2= 1.2D+00
   Bfn.  Coefficient  Atom+Function         Bfn.  Coefficient  Atom+Function  
  ----- ------------  ---------------      ----- ------------  ---------------
     8      1.129062  1 O  py                 4     -0.851264  1 O  py         
     7      0.569036  1 O  px                18      0.367425  3 H  s          
     3     -0.359224  1 O  px                17     -0.324371  2 H  s          
     6     -0.190372  1 O  s                  2      0.174361  1 O  s          
    13      0.165003  1 O  dyy               19      0.158970  3 H  s          

 Vector   13  Occ=0.000000D+00  E= 1.124779D+00  Symmetry=a'
              MO Center=  3.7D-01, -2.0D-01,  2.5D-16, r^2= 1.3D+00
   Bfn.  Coefficient  Atom+Function         Bfn.  Coefficient  Atom+Function  
  ----- ------------  ---------------      ----- ------------  ---------------
     6      2.638488  1 O  s                  2     -1.200961  1 O  s          
     7      1.204619  1 O  px                17     -0.907335  2 H  s          
     3     -0.593301  1 O  px                10     -0.464202  1 O  dxx        
    13     -0.369856  1 O  dyy               16     -0.322657  2 H  s          
    18     -0.277971  3 H  s                 15     -0.250039  1 O  dzz        

 Vector   14  Occ=0.000000D+00  E= 1.768464D+00  Symmetry=a'
              MO Center= -1.4D-01, -2.4D-02, -2.0D-17, r^2= 6.2D-01
   Bfn.  Coefficient  Atom+Function         Bfn.  Coefficient  Atom+Function  
  ----- ------------  ---------------      ----- ------------  ---------------
    11      1.605234  1 O  dxy               10     -0.375233  1 O  dxx        
    15      0.210760  1 O  dzz               13      0.144833  1 O  dyy        
     6      0.097415  1 O  s                 18     -0.084425  3 H  s          
     8     -0.071640  1 O  py                 2     -0.058358  1 O  s          
     7      0.045555  1 O  px                16     -0.031592  2 H  s          

 Vector   15  Occ=0.000000D+00  E= 1.782348D+00  Symmetry=a"
              MO Center= -1.2D-01, -3.7D-02,  3.7D-18, r^2= 6.1D-01
   Bfn.  Coefficient  Atom+Function         Bfn.  Coefficient  Atom+Function  
  ----- ------------  ---------------      ----- ------------  ---------------
    12      1.580169  1 O  dxz               14      0.708138  1 O  dyz        

 Vector   16  Occ=0.000000D+00  E= 1.812640D+00  Symmetry=a"
              MO Center= -1.1D-01, -2.1D-02, -5.0D-23, r^2= 6.1D-01
   Bfn.  Coefficient  Atom+Function         Bfn.  Coefficient  Atom+Function  
  ----- ------------  ---------------      ----- ------------  ---------------
    14      1.580650  1 O  dyz               12     -0.707643  1 O  dxz        

 Vector   17  Occ=0.000000D+00  E= 1.867421D+00  Symmetry=a'
              MO Center= -1.1D-01, -1.1D-01, -8.2D-17, r^2= 6.8D-01
   Bfn.  Coefficient  Atom+Function         Bfn.  Coefficient  Atom+Function  
  ----- ------------  ---------------      ----- ------------  ---------------
    13      0.898008  1 O  dyy               15     -0.828332  1 O  dzz        
    18     -0.283835  3 H  s                  6      0.151484  1 O  s          
     8     -0.150902  1 O  py                 2     -0.138788  1 O  s          
     4      0.094281  1 O  py                10     -0.052789  1 O  dxx        
    19      0.040797  3 H  s          

 Vector   18  Occ=0.000000D+00  E= 2.324025D+00  Symmetry=a'
              MO Center=  6.6D-02,  6.9D-03,  2.9D-17, r^2= 8.2D-01
   Bfn.  Coefficient  Atom+Function         Bfn.  Coefficient  Atom+Function  
  ----- ------------  ---------------      ----- ------------  ---------------
    16     -1.017368  2 H  s                 10      0.969369  1 O  dxx        
     6      0.787826  1 O  s                 11      0.716251  1 O  dxy        
     7      0.646362  1 O  px                15     -0.638946  1 O  dzz        
    13     -0.554549  1 O  dyy                2     -0.292764  1 O  s          
     8      0.152418  1 O  py                 3     -0.119688  1 O  px         

 Vector   19  Occ=0.000000D+00  E= 3.448173D+00  Symmetry=a'
              MO Center= -1.1D-01, -2.4D-02,  1.3D-18, r^2= 9.7D-01
   Bfn.  Coefficient  Atom+Function         Bfn.  Coefficient  Atom+Function  
  ----- ------------  ---------------      ----- ------------  ---------------
     6      3.136748  1 O  s                 15     -1.519815  1 O  dzz        
    10     -1.464345  1 O  dxx               13     -1.430275  1 O  dyy        
    17     -0.531001  2 H  s                  1     -0.445212  1 O  s          
     2      0.415122  1 O  s                  7      0.260810  1 O  px         
    19     -0.187450  3 H  s                 16      0.101264  2 H  s          


 center of mass
 --------------
 x =  -0.09435045 y =  -0.19484911 z =   0.00000000

 moments of inertia (a.u.)
 ------------------
           8.291283336653          -1.417123175922           0.000000000000
          -1.417123175922           3.637157810821           0.000000000000
           0.000000000000           0.000000000000          11.928441147473

     Multipole analysis of the density
     ---------------------------------

     L   x y z        total         alpha         beta         nuclear
     -   - - -        -----         -----         ----         -------
     0   0 0 0     -0.000000     -5.000000     -5.000000     10.000000

     1   1 0 0      0.622116      0.376140      0.376140     -0.130163
     1   0 1 0     -0.485435      1.270738      1.270738     -3.026911
     1   0 0 1      0.000000      0.000000      0.000000      0.000000

     2   2 0 0     -4.191806     -3.826109     -3.826109      3.460411
     2   1 1 0      0.555891     -0.544391     -0.544391      1.644673
     2   1 0 1      0.000000      0.000000      0.000000      0.000000
     2   0 2 0     -2.796409     -5.837738     -5.837738      8.879066
     2   0 1 1      0.000000      0.000000      0.000000      0.000000
     2   0 0 2     -5.726692     -2.863346     -2.863346      0.000000


 Parallel integral file used       1 records with       0 large values


            General Information
            -------------------
          SCF calculation type: DFT
          Wavefunction type:  closed shell.
          No. of atoms     :     3
          No. of electrons :    10
           Alpha electrons :     5
            Beta electrons :     5
          Charge           :     0
          Spin multiplicity:     1
          Use of symmetry is: on ; symmetry adaption is: on 
          Maximum number of iterations:  30
          AO basis - number of functions:    19
                     number of shells:    10
          Convergence on energy requested:  1.00D-06
          Convergence on density requested:  1.00D-05
          Convergence on gradient requested:  5.00D-04

              XC Information
              --------------
                         B3LYP Method XC Potential
                     Hartree-Fock (Exact) Exchange  0.200          
                        Slater Exchange Functional  0.800 local    
                    Becke 1988 Exchange Functional  0.720 non-local
              Lee-Yang-Parr Correlation Functional  0.810          
                  VWN I RPA Correlation Functional  0.190 local    

             Grid Information
             ----------------
          Grid used for XC integration:  medium    
          Radial quadrature: Mura-Knowles        
          Angular quadrature: Lebedev. 
          Tag              B.-S. Rad. Rad. Pts. Rad. Cut. Ang. Pts.
          ---              ---------- --------- --------- ---------
          O                   0.60       49           6.0       434
          H                   0.35       45           7.0       434
          Grid pruning is: on 
          Number of quadrature shells:   139
          Spatial weights used:  Erf1

          Convergence Information
          -----------------------
          Convergence aids based upon iterative change in 
          total energy or number of iterations. 
          Levelshifting, if invoked, occurs when the 
          HOMO/LUMO gap drops below (HL_TOL):  1.00D-02
          DIIS, if invoked, will attempt to extrapolate 
          using up to (NFOCK): 10 stored Fock matrices.

                    Damping( 0%)  Levelshifting(0.5)       DIIS
                  --------------- ------------------- ---------------
          dE  on:    start            ASAP                start   
          dE off:    2 iters         30 iters            30 iters 


      Screening Tolerance Information
      -------------------------------
          Density screening/tol_rho:  1.00D-10
          AO Gaussian exp screening on grid/accAOfunc:  14
          CD Gaussian exp screening on grid/accCDfunc:  20
          XC Gaussian exp screening on grid/accXCfunc:  20
          Schwarz screening/accCoul:  1.00D-08



                            NWChem DFT Gradient Module
                            --------------------------


                                      Título



  charge          =   0.00
  wavefunction    = closed shell

  Using symmetry


                         DFT ENERGY GRADIENTS

    atom               coordinates                        gradient
                 x          y          z           x          y          z
   1 O      -0.197688  -0.057832   0.000000   -0.040556   0.080832   0.000000
   2 H       1.749040   0.385900   0.000000    0.052909   0.024974   0.000000
   3 H      -0.297699  -2.950151   0.000000   -0.012353  -0.105806   0.000000

                 ----------------------------------------
                 |  Time  |  1-e(secs)   |  2-e(secs)   |
                 ----------------------------------------
                 |  CPU   |       0.00   |       0.11   |
                 ----------------------------------------
                 |  WALL  |       0.00   |       0.03   |
                 ----------------------------------------
  no constraints, skipping    0.0000000000000000     

  Step       Energy      Delta E   Gmax     Grms     Xrms     Xmax   Walltime
  ---- ---------------- -------- -------- -------- -------- -------- --------
@    1     -76.30347452 -5.5D-02  0.10617  0.07003  0.18971  0.43244      0.8
                                                                    



                                Z-matrix (autoz)
                                -------- 

 Units are Angstrom for bonds and degrees for angles

      Type          Name      I     J     K     L     M      Value     Gradient
      ----------- --------  ----- ----- ----- ----- ----- ---------- ----------
    1 Stretch                  1     3                       1.53146    0.10617
    2 Stretch                  1     2                       1.05659    0.05714
    3 Bend                     2     1     3               104.82087    0.01330

 Restricting large step in mode    1 eval= 5.9D-03 step=-1.0D+01 new=-3.0D-01
 Restricting large step in mode    2 eval= 9.5D-02 step=-5.9D-01 new=-3.0D-01
 Restricting overall step due to large component. alpha=  0.70
  no constraints, skipping    0.0000000000000000     
  no constraints, skipping    0.0000000000000000     
  no constraints, skipping    0.0000000000000000     
  no constraints, skipping    0.0000000000000000     
  no constraints, skipping    0.0000000000000000     

                                 NWChem DFT Module
                                 -----------------


[...]

  Numbering of irreducible representations: 

     1 a'          2 a"      

  Orbital symmetries:

     1 a'          2 a'          3 a'          4 a'          5 a"      
     6 a'          7 a'          8 a'          9 a'         10 a"      
    11 a'         12 a'         13 a'         14 a'         15 a"      

   Time after variat. SCF:      3.9
   Time prior to 1st pass:      3.9

 #quartets = 1.540D+03 #integrals = 8.940D+03 #direct =  0.0% #cached =100.0%


 Integral file          = ./molecule.aoints.0
 Record size in doubles =  65536        No. of integs per rec  =  43688
 Max. records in memory =      2        Max. records in file   =  48010
 No. of bits per label  =      8        No. of bits per value  =     64


 Grid_pts file          = ./molecule.gridpts.0
 Record size in doubles =  12289        No. of grid_pts per rec  =   3070
 Max. records in memory =     23        Max. recs in file   =    256038


           Memory utilization after 1st SCF pass: 
           Heap Space remaining (MW):      261.73           261728654
          Stack Space remaining (MW):      262.14           262143764

   convergence    iter        energy       DeltaE   RMS-Dens  Diis-err    time
 ---------------- ----- ----------------- --------- --------- ---------  ------
 d= 0,ls=0.0,diis     1    -76.4089545308 -8.55D+01  7.34D-06  1.58D-08     4.0
 d= 0,ls=0.0,diis     2    -76.4089545296  1.19D-09  4.20D-06  2.99D-08     4.0


         Total DFT energy =      -76.408954529582
      One electron energy =     -122.935455971989
           Coulomb energy =       46.782172737978
    Exchange-Corr. energy =       -9.343225404441
 Nuclear repulsion energy =        9.087554108869

 Numeric. integr. density =       10.000001092273

     Total iterative time =      0.1s



                  Occupations of the irreducible representations
                  ----------------------------------------------

                     irrep           alpha         beta
                     --------     --------     --------
                     a'                4.0          4.0
                     a"                1.0          1.0


                       DFT Final Molecular Orbital Analysis
                       ------------------------------------

 Vector    1  Occ=2.000000D+00  E=-1.913818D+01  Symmetry=a'
              MO Center= -1.1D-01, -2.3D-01, -1.4D-28, r^2= 1.5D-02
   Bfn.  Coefficient  Atom+Function         Bfn.  Coefficient  Atom+Function  
  ----- ------------  ---------------      ----- ------------  ---------------
     1      0.992860  1 O  s                  2      0.026224  1 O  s          

 Vector    2  Occ=2.000000D+00  E=-9.978869D-01  Symmetry=a'
              MO Center=  6.4D-02, -3.5D-01, -8.7D-18, r^2= 5.1D-01
   Bfn.  Coefficient  Atom+Function         Bfn.  Coefficient  Atom+Function  
  ----- ------------  ---------------      ----- ------------  ---------------
     2      0.469211  1 O  s                  6      0.439525  1 O  s          
     1     -0.209500  1 O  s                 16      0.139135  2 H  s          
    18      0.139146  3 H  s                  3      0.104405  1 O  px         
     4     -0.073529  1 O  py                 7      0.049596  1 O  px         
     8     -0.034927  1 O  py         

 Vector    3  Occ=2.000000D+00  E=-5.171128D-01  Symmetry=a'
              MO Center=  8.3D-02, -3.7D-01,  1.9D-20, r^2= 7.9D-01
   Bfn.  Coefficient  Atom+Function         Bfn.  Coefficient  Atom+Function  
  ----- ------------  ---------------      ----- ------------  ---------------
     4      0.423075  1 O  py                 3      0.297913  1 O  px         
    16      0.237430  2 H  s                 18     -0.237431  3 H  s          
     8      0.220575  1 O  py                 7      0.155324  1 O  px         
    17      0.141972  2 H  s                 19     -0.141969  3 H  s          
    10      0.033653  1 O  dxx               13     -0.033654  1 O  dyy        

 Vector    4  Occ=2.000000D+00  E=-3.722386D-01  Symmetry=a'
              MO Center= -1.7D-01, -1.9D-01,  2.4D-16, r^2= 7.0D-01
   Bfn.  Coefficient  Atom+Function         Bfn.  Coefficient  Atom+Function  
  ----- ------------  ---------------      ----- ------------  ---------------
     3      0.451164  1 O  px                 6     -0.410454  1 O  s          
     4     -0.317695  1 O  py                 7      0.304256  1 O  px         
     8     -0.214246  1 O  py                 2     -0.177274  1 O  s          
    16      0.143747  2 H  s                 18      0.143743  3 H  s          
    17      0.114291  2 H  s                 19      0.114285  3 H  s          

 Vector    5  Occ=2.000000D+00  E=-2.911929D-01  Symmetry=a"
              MO Center= -8.8D-02, -2.4D-01, -2.4D-16, r^2= 6.0D-01
   Bfn.  Coefficient  Atom+Function         Bfn.  Coefficient  Atom+Function  
  ----- ------------  ---------------      ----- ------------  ---------------
     5      0.644581  1 O  pz                 9      0.506044  1 O  pz         
    12      0.050186  1 O  dxz               14     -0.035343  1 O  dyz        

 Vector    6  Occ=0.000000D+00  E= 6.259458D-02  Symmetry=a'
              MO Center=  5.0D-01, -6.6D-01,  5.4D-17, r^2= 2.4D+00
   Bfn.  Coefficient  Atom+Function         Bfn.  Coefficient  Atom+Function  
  ----- ------------  ---------------      ----- ------------  ---------------
     6      1.257725  1 O  s                 17     -0.969056  2 H  s          
    19     -0.968983  3 H  s                  7      0.390440  1 O  px         
     8     -0.274900  1 O  py                 3      0.229524  1 O  px         
     4     -0.161597  1 O  py                 2      0.119294  1 O  s          
     1     -0.100637  1 O  s                 16     -0.096283  2 H  s          

 Vector    7  Occ=0.000000D+00  E= 1.481124D-01  Symmetry=a'
              MO Center=  4.6D-01, -6.3D-01, -3.9D-19, r^2= 2.5D+00
   Bfn.  Coefficient  Atom+Function         Bfn.  Coefficient  Atom+Function  
  ----- ------------  ---------------      ----- ------------  ---------------
    17      1.277688  2 H  s                 19     -1.277812  3 H  s          
     8     -0.620404  1 O  py                 7     -0.436846  1 O  px         
     4     -0.338065  1 O  py                 3     -0.238048  1 O  px         
    16      0.107376  2 H  s                 18     -0.107374  3 H  s          

 Vector    8  Occ=0.000000D+00  E= 7.724144D-01  Symmetry=a'
              MO Center=  1.2D-01, -3.9D-01,  3.8D-17, r^2= 1.6D+00
   Bfn.  Coefficient  Atom+Function         Bfn.  Coefficient  Atom+Function  
  ----- ------------  ---------------      ----- ------------  ---------------
    16      0.840286  2 H  s                 18     -0.840112  3 H  s          
    17     -0.655512  2 H  s                 19      0.655332  3 H  s          
     8     -0.351936  1 O  py                 7     -0.247775  1 O  px         
    10      0.159821  1 O  dxx               13     -0.159812  1 O  dyy        
     4     -0.140737  1 O  py                11      0.114435  1 O  dxy        

 Vector    9  Occ=0.000000D+00  E= 8.609446D-01  Symmetry=a'
              MO Center=  1.7D-01, -4.2D-01,  7.1D-16, r^2= 1.3D+00
   Bfn.  Coefficient  Atom+Function         Bfn.  Coefficient  Atom+Function  
  ----- ------------  ---------------      ----- ------------  ---------------
    16      0.711313  2 H  s                 18      0.711506  3 H  s          
     3     -0.579104  1 O  px                17     -0.551848  2 H  s          
    19     -0.551916  3 H  s                  4      0.407797  1 O  py         
     7      0.313932  1 O  px                 8     -0.220936  1 O  py         
     2     -0.135106  1 O  s                  6      0.134752  1 O  s          

 Vector   10  Occ=0.000000D+00  E= 8.907769D-01  Symmetry=a"
              MO Center= -1.0D-01, -2.4D-01,  7.3D-15, r^2= 1.1D+00
   Bfn.  Coefficient  Atom+Function         Bfn.  Coefficient  Atom+Function  
  ----- ------------  ---------------      ----- ------------  ---------------
     9     -1.038625  1 O  pz                 5      0.959432  1 O  pz         

 Vector   11  Occ=0.000000D+00  E= 8.950997D-01  Symmetry=a'
              MO Center= -2.7D-01, -1.2D-01, -8.4D-15, r^2= 1.4D+00
   Bfn.  Coefficient  Atom+Function         Bfn.  Coefficient  Atom+Function  
  ----- ------------  ---------------      ----- ------------  ---------------
     6      1.410461  1 O  s                  2     -0.836335  1 O  s          
     7     -0.676286  1 O  px                 8      0.476299  1 O  py         
    16      0.468251  2 H  s                 18      0.468296  3 H  s          
     3      0.456093  1 O  px                17     -0.373862  2 H  s          
    19     -0.373838  3 H  s                 15     -0.327606  1 O  dzz        

 Vector   12  Occ=0.000000D+00  E= 1.065772D+00  Symmetry=a'
              MO Center= -9.0D-02, -2.4D-01,  6.7D-18, r^2= 1.5D+00
   Bfn.  Coefficient  Atom+Function         Bfn.  Coefficient  Atom+Function  
  ----- ------------  ---------------      ----- ------------  ---------------
     8      1.331099  1 O  py                 7      0.937344  1 O  px         
    17     -0.926542  2 H  s                 19      0.926606  3 H  s          
     4     -0.808818  1 O  py                 3     -0.569550  1 O  px         

 Vector   13  Occ=0.000000D+00  E= 1.193475D+00  Symmetry=a'
              MO Center=  2.9D-01, -5.1D-01,  4.4D-16, r^2= 1.4D+00
   Bfn.  Coefficient  Atom+Function         Bfn.  Coefficient  Atom+Function  
  ----- ------------  ---------------      ----- ------------  ---------------
     6      3.596511  1 O  s                  2     -1.457348  1 O  s          
     7      0.904112  1 O  px                17     -0.773029  2 H  s          
    19     -0.773113  3 H  s                  8     -0.636693  1 O  py         
    13     -0.569929  1 O  dyy               10     -0.480888  1 O  dxx        
    16     -0.352273  2 H  s                 18     -0.352265  3 H  s          

 Vector   14  Occ=0.000000D+00  E= 1.729070D+00  Symmetry=a'
              MO Center= -1.5D-01, -2.0D-01, -1.1D-16, r^2= 6.2D-01
   Bfn.  Coefficient  Atom+Function         Bfn.  Coefficient  Atom+Function  
  ----- ------------  ---------------      ----- ------------  ---------------
    11      1.509214  1 O  dxy               10     -0.475542  1 O  dxx        
    15      0.343739  1 O  dzz                6      0.252377  1 O  s          
     7      0.117376  1 O  px                 2     -0.090108  1 O  s          
     8     -0.082652  1 O  py                16     -0.081703  2 H  s          
    18     -0.081702  3 H  s                 13      0.064693  1 O  dyy        

 Vector   15  Occ=0.000000D+00  E= 1.746385D+00  Symmetry=a"
              MO Center= -1.1D-01, -2.3D-01, -4.5D-17, r^2= 6.1D-01
   Bfn.  Coefficient  Atom+Function         Bfn.  Coefficient  Atom+Function  
  ----- ------------  ---------------      ----- ------------  ---------------
    14      1.416206  1 O  dyz               12      0.997176  1 O  dxz        

 Vector   16  Occ=0.000000D+00  E= 1.779795D+00  Symmetry=a"
              MO Center= -1.3D-01, -2.2D-01, -3.2D-23, r^2= 6.1D-01
   Bfn.  Coefficient  Atom+Function         Bfn.  Coefficient  Atom+Function  
  ----- ------------  ---------------      ----- ------------  ---------------
    12      1.415126  1 O  dxz               14     -0.996415  1 O  dyz        
     9     -0.035002  1 O  pz         

 Vector   17  Occ=0.000000D+00  E= 2.280558D+00  Symmetry=a'
              MO Center= -9.3D-03, -3.0D-01,  9.0D-18, r^2= 8.3D-01
   Bfn.  Coefficient  Atom+Function         Bfn.  Coefficient  Atom+Function  
  ----- ------------  ---------------      ----- ------------  ---------------
     6      1.538850  1 O  s                 15     -1.131205  1 O  dzz        
    16     -0.812375  2 H  s                 18     -0.812288  3 H  s          
    11      0.626264  1 O  dxy                7      0.604376  1 O  px         
     2     -0.514886  1 O  s                 13      0.515495  1 O  dyy        
     8     -0.425545  1 O  py                10      0.291457  1 O  dxx        

 Vector   18  Occ=0.000000D+00  E= 2.577068D+00  Symmetry=a'
              MO Center= -5.9D-02, -2.7D-01, -2.5D-21, r^2= 8.6D-01
   Bfn.  Coefficient  Atom+Function         Bfn.  Coefficient  Atom+Function  
  ----- ------------  ---------------      ----- ------------  ---------------
    10      1.037190  1 O  dxx               13     -1.037249  1 O  dyy        
    16     -0.923326  2 H  s                 18      0.923499  3 H  s          
    11      0.742506  1 O  dxy                8      0.688671  1 O  py         
     7      0.484855  1 O  px                17      0.050267  2 H  s          
    19     -0.050225  3 H  s                  4     -0.030192  1 O  py         

 Vector   19  Occ=0.000000D+00  E= 3.551878D+00  Symmetry=a'
              MO Center= -1.0D-01, -2.3D-01, -1.0D-19, r^2= 1.0D+00
   Bfn.  Coefficient  Atom+Function         Bfn.  Coefficient  Atom+Function  
  ----- ------------  ---------------      ----- ------------  ---------------
     6      3.689447  1 O  s                 15     -1.578745  1 O  dzz        
    10     -1.541810  1 O  dxx               13     -1.533900  1 O  dyy        
    17     -0.554486  2 H  s                 19     -0.554520  3 H  s          
     1     -0.467944  1 O  s                  2      0.286722  1 O  s          
     7      0.273094  1 O  px                 8     -0.192310  1 O  py         


 center of mass
 --------------
 x =  -0.09537575 y =  -0.51261505 z =   0.00000000

 moments of inertia (a.u.)
 ------------------
           3.550099663546          -0.885957888136           0.000000000000
          -0.885957888136           2.916011680550           0.000000000000
           0.000000000000           0.000000000000           6.466111344096

     Multipole analysis of the density
     ---------------------------------

     L   x y z        total         alpha         beta         nuclear
     -   - - -        -----         -----         ----         -------
     0   0 0 0     -0.000000     -5.000000     -5.000000     10.000000

     1   1 0 0      0.674091      0.406440      0.406440     -0.138788
     1   0 1 0     -0.474668      2.612672      2.612672     -5.700012
     1   0 0 1      0.000000      0.000000      0.000000      0.000000

     2   2 0 0     -4.052153     -3.398324     -3.398324      2.744494
     2   1 1 0      0.218221     -0.423078     -0.423078      1.064377
     2   1 0 1      0.000000      0.000000      0.000000      0.000000
     2   0 2 0     -3.065782     -4.881279     -4.881279      6.696777
     2   0 1 1      0.000000      0.000000      0.000000      0.000000
     2   0 0 2     -5.355918     -2.677959     -2.677959      0.000000


 Parallel integral file used       1 records with       0 large values


 Task  times  cpu:        0.2s     wall:        0.1s
 Summary of allocated global arrays
-----------------------------------
  No active global arrays



                         GA Statistics for process    0
                         ------------------------------

       create   destroy   get      put      acc     scatter   gather  read&inc
calls: 3431     3314     9.76e+04 1.30e+04 4.07e+04    0        0     1.02e+04 
number of processes/call 0.00e+00 0.00e+00 0.00e+00 0.00e+00 0.00e+00
bytes total:             3.69e+07 8.42e+06 1.85e+07 0.00e+00 0.00e+00 8.18e+04
bytes remote:            0.00e+00 0.00e+00 0.00e+00 0.00e+00 0.00e+00 0.00e+00
Max memory consumed for GA by this process: 112632 bytes
MA_summarize_allocated_blocks: starting scan ...
MA_summarize_allocated_blocks: scan completed: 0 heap blocks, 0 stack blocks
MA usage statistics:

	allocation statistics:
					      heap	     stack
					      ----	     -----
	current number of blocks	         0	         0
	maximum number of blocks	        25	        57
	current total bytes		         0	         0
	maximum total bytes		   3322728	  22510520
	maximum total K-bytes		      3323	     22511
	maximum total M-bytes		         4	        23


                                NWChem Input Module
                                -------------------





                                     CITATION
                                     --------
                Please cite the following reference when publishing
                           results obtained with NWChem:

          E. Aprà, E. J. Bylaska, W. A. de Jong, N. Govind, K. Kowalski,
       T. P. Straatsma, M. Valiev, H. J. J. van Dam, Y. Alexeev, J. Anchell,
       V. Anisimov, F. W. Aquino, R. Atta-Fynn, J. Autschbach, N. P. Bauman,
     J. C. Becca, D. E. Bernholdt, K. Bhaskaran-Nair, S. Bogatko, P. Borowski,
        J. Boschen, J. Brabec, A. Bruner, E. Cauët, Y. Chen, G. N. Chuev,
      C. J. Cramer, J. Daily, M. J. O. Deegan, T. H. Dunning Jr., M. Dupuis,
   K. G. Dyall, G. I. Fann, S. A. Fischer, A. Fonari, H. Früchtl, L. Gagliardi,
      J. Garza, N. Gawande, S. Ghosh, K. Glaesemann, A. W. Götz, J. Hammond,
       V. Helms, E. D. Hermes, K. Hirao, S. Hirata, M. Jacquelin, L. Jensen,
   B. G. Johnson, H. Jónsson, R. A. Kendall, M. Klemm, R. Kobayashi, V. Konkov,
      S. Krishnamoorthy, M. Krishnan, Z. Lin, R. D. Lins, R. J. Littlefield,
      A. J. Logsdail, K. Lopata, W. Ma, A. V. Marenich, J. Martin del Campo,
   D. Mejia-Rodriguez, J. E. Moore, J. M. Mullin, T. Nakajima, D. R. Nascimento,
    J. A. Nichols, P. J. Nichols, J. Nieplocha, A. Otero-de-la-Roza, B. Palmer,
    A. Panyala, T. Pirojsirikul, B. Peng, R. Peverati, J. Pittner, L. Pollack,
   R. M. Richard, P. Sadayappan, G. C. Schatz, W. A. Shelton, D. W. Silverstein,
   D. M. A. Smith, T. A. Soares, D. Song, M. Swart, H. L. Taylor, G. S. Thomas,
            V. Tipparaju, D. G. Truhlar, K. Tsemekhman, T. Van Voorhis,
     Á. Vázquez-Mayagoitia, P. Verma, O. Villa, A. Vishnu, K. D. Vogiatzis,
        D. Wang, J. H. Weare, M. J. Williamson, T. L. Windus, K. Woliński,
        A. T. Wong, Q. Wu, C. Yang, Q. Yu, M. Zacharias, Z. Zhang, Y. Zhao,
                                and R. J. Harrison
                        "NWChem: Past, present, and future
                         J. Chem. Phys. 152, 184102 (2020)
                               doi:10.1063/5.0004997

                                      AUTHORS
                                      -------
     E. Apra, E. J. Bylaska, N. Govind, K. Kowalski, M. Valiev, W. A. de Jong,
      T. P. Straatsma, H. J. J. van Dam, D. Wang, T. L. Windus, N. P. Bauman,
       A. Panyala, J. Hammond, J. Autschbach, K. Bhaskaran-Nair, J. Brabec,
    K. Lopata, S. A. Fischer, S. Krishnamoorthy, M. Jacquelin, W. Ma, M. Klemm,
       O. Villa, Y. Chen, V. Anisimov, F. Aquino, S. Hirata, M. T. Hackler,
           Eric Hermes, L. Jensen, J. E. Moore, J. C. Becca, V. Konjkov,
            D. Mejia-Rodriguez, T. Risthaus, M. Malagoli, A. Marenich,
   A. Otero-de-la-Roza, J. Mullin, P. Nichols, R. Peverati, J. Pittner, Y. Zhao,
        P.-D. Fan, A. Fonari, M. J. Williamson, R. J. Harrison, J. R. Rehr,
      M. Dupuis, D. Silverstein, D. M. A. Smith, J. Nieplocha, V. Tipparaju,
      M. Krishnan, B. E. Van Kuiken, A. Vazquez-Mayagoitia, M. Swart, Q. Wu,
   T. Van Voorhis, A. A. Auer, M. Nooijen, L. D. Crosby, E. Brown, G. Cisneros,
     G. I. Fann, H. Fruchtl, J. Garza, K. Hirao, R. A. Kendall, J. A. Nichols,
       K. Tsemekhman, K. Wolinski, J. Anchell, D. E. Bernholdt, P. Borowski,
       T. Clark, D. Clerc, H. Dachsel, M. J. O. Deegan, K. Dyall, D. Elwood,
      E. Glendening, M. Gutowski, A. C. Hess, J. Jaffe, B. G. Johnson, J. Ju,
        R. Kobayashi, R. Kutteh, Z. Lin, R. Littlefield, X. Long, B. Meng,
      T. Nakajima, S. Niu, L. Pollack, M. Rosing, K. Glaesemann, G. Sandrone,
      M. Stave, H. Taylor, G. Thomas, J. H. van Lenthe, A. T. Wong, Z. Zhang.

 Total times  cpu:        9.9s     wall:        4.0s
