 argument  1 = optimizacion.nw



============================== echo of input deck ==============================
echo

start molecule

title "Título"
memory 8000 mb
charge 0

geometry units angstroms print xyz autosym
   O      0.2672100000   -0.2505700000    0.2411800000
   H      0.5536293646    0.4280420604   -0.3587779956
   H      2.0844049454   -0.7237858772    0.2411792129
end

basis
  * library 6-31G*
end

dft
  xc b3lyp
  mult 1
end

task dft optimize
================================================================================


                                         
                                         


             Northwest Computational Chemistry Package (NWChem) 7.0.2
             --------------------------------------------------------


                    Environmental Molecular Sciences Laboratory
                       Pacific Northwest National Laboratory
                                Richland, WA 99352

                              Copyright (c) 1994-2020
                       Pacific Northwest National Laboratory
                            Battelle Memorial Institute

             NWChem is an open-source computational chemistry package
                        distributed under the terms of the
                      Educational Community License (ECL) 2.0
             A copy of the license is included with this distribution
                              in the LICENSE.TXT file

                                  ACKNOWLEDGMENT
                                  --------------

            This software and its documentation were developed at the
            EMSL at Pacific Northwest National Laboratory, a multiprogram
            national laboratory, operated for the U.S. Department of Energy
            by Battelle under Contract Number DE-AC05-76RL01830. Support
            for this work was provided by the Department of Energy Office
            of Biological and Environmental Research, Office of Basic
            Energy Sciences, and the Office of Advanced Scientific Computing.


           Job information
           ---------------

    hostname        = OMEN-HP-Laptop-16-c0xxx
    program         = nwchem
    date            = Mon Jul  7 18:33:14 2025

    compiled        = Sat_Apr_09_17:12:10_2022
    source          = /build/nwchem-f1f4gx/nwchem-7.0.2/build-openmpi
    nwchem branch   = 7.0.2
    nwchem revision = N/A
    ga revision     = 5.8.1
    use scalapack   = T
    input           = optimizacion.nw
    prefix          = molecule.
    data base       = ./molecule.db
    status          = startup
    nproc           =        1
    time left       =     -1s



           Memory information
           ------------------

    heap     =  262143994 doubles =   2000.0 Mbytes
    stack    =  262143999 doubles =   2000.0 Mbytes
    global   =  524288000 doubles =   4000.0 Mbytes (distinct from heap & stack)
    total    = 1048575993 doubles =   8000.0 Mbytes
    verify   = yes
    hardfail = no 


           Directory information
           ---------------------

  0 permanent = .
  0 scratch   = .




                                NWChem Input Module
                                -------------------


                                      Título
                                      -------

 Scaling coordinates for geometry "geometry" by  1.889725989
 (inverse scale =  0.529177249)

 CS  symmetry detected

          ------
          auto-z
          ------
  autoz: The atoms group into disjoint clusters
 cluster   1:    1    2
 cluster   2:    3
 Connecting clusters   1   2 via atoms    1    3 r = 1.88
  autoz: regenerating connections with new bonds
  no constraints, skipping    0.0000000000000000     
  no constraints, skipping    0.0000000000000000     


                             Geometry "geometry" -> ""
                             -------------------------

 Output coordinates in angstroms (scale by  1.889725989 to convert to a.u.)

  No.       Tag          Charge          X              Y              Z
 ---- ---------------- ---------- -------------- -------------- --------------
    1 O                    8.0000    -0.09477214     0.19822097     0.00000000
    2 H                    1.0000     0.84947242     0.09380746     0.00000000
    3 H                    1.0000    -0.09129530    -1.67957525     0.00000000

      Atomic Mass 
      ----------- 

      O                 15.994910
      H                  1.007825


 Effective nuclear repulsion energy (a.u.)       6.9742907168

            Nuclear Dipole moment (a.u.) 
            ----------------------------
        X                 Y               Z
 ---------------- ---------------- ----------------
     0.0000000000     0.0000000000     0.0000000000

      Symmetry information
      --------------------

 Group name             Cs        
 Group number              2
 Group order               2
 No. of unique centers     3

      Symmetry unique atoms

     1    2    3



                                Z-matrix (autoz)
                                -------- 

 Units are Angstrom for bonds and degrees for angles

      Type          Name      I     J     K     L     M      Value
      ----------- --------  ----- ----- ----- ----- ----- ----------
    1 Stretch                  1     3                       1.87780
    2 Stretch                  1     2                       0.95000
    3 Bend                     2     1     3                83.58385


            XYZ format geometry
            -------------------
     3
 geometry
 O                    -0.09477214     0.19822097     0.00000000
 H                     0.84947242     0.09380746     0.00000000
 H                    -0.09129530    -1.67957525     0.00000000

 ==============================================================================
                                internuclear distances
 ------------------------------------------------------------------------------
       center one      |      center two      | atomic units |  angstroms
 ------------------------------------------------------------------------------
    2 H                |   1 O                |     1.79524  |     0.95000
 ------------------------------------------------------------------------------
                         number of included internuclear distances:          1
 ==============================================================================





 Summary of "ao basis" -> "" (cartesian)
 ------------------------------------------------------------------------------
       Tag                 Description            Shells   Functions and Types
 ---------------- ------------------------------  ------  ---------------------
 *                           6-31G*                   on all atoms 




                           NWChem Geometry Optimization
                           ----------------------------




                                      Título


  no constraints, skipping    0.0000000000000000     
 maximum gradient threshold         (gmax) =   0.000450
 rms gradient threshold             (grms) =   0.000300
 maximum cartesian step threshold   (xmax) =   0.001800
 rms cartesian step threshold       (xrms) =   0.001200
 fixed trust radius                (trust) =   0.300000
 maximum step size to saddle      (sadstp) =   0.100000
 energy precision                  (eprec) =   5.0D-06
 maximum number of steps          (nptopt) =   20
 initial hessian option           (inhess) =    0
 line search option               (linopt) =    1
 hessian update option            (modupd) =    1
 saddle point option              (modsad) =    0
 initial eigen-mode to follow     (moddir) =    0
 initial variable to follow       (vardir) =    0
 follow first negative mode     (firstneg) =    T
 apply conjugacy                    (opcg) =    F
 source of zmatrix                         =   autoz   


          -------------------
          Energy Minimization
          -------------------


 Names of Z-matrix variables 
    1              2              3         

 Variables with the same non-blank name are constrained to be equal


 Using diagonal initial Hessian 
 Scaling for Hessian diagonals: bonds = 1.00  angles = 0.25  torsions = 0.10

          --------
          Step   0
          --------


                         Geometry "geometry" -> "geometry"
                         ---------------------------------

 Output coordinates in angstroms (scale by  1.889725989 to convert to a.u.)

  No.       Tag          Charge          X              Y              Z
 ---- ---------------- ---------- -------------- -------------- --------------
    1 O                    8.0000    -0.09477214     0.19822097     0.00000000
    2 H                    1.0000     0.84947242     0.09380746     0.00000000
    3 H                    1.0000    -0.09129530    -1.67957525     0.00000000

      Atomic Mass 
      ----------- 

      O                 15.994910
      H                  1.007825


 Effective nuclear repulsion energy (a.u.)       6.9742907168

            Nuclear Dipole moment (a.u.) 
            ----------------------------
        X                 Y               Z
 ---------------- ---------------- ----------------
     0.0000000000     0.0000000000     0.0000000000

      Symmetry information
      --------------------

 Group name             Cs        
 Group number              2
 Group order               2
 No. of unique centers     3

      Symmetry unique atoms

     1    2    3


                                 NWChem DFT Module
                                 -----------------


                                      Título


                      Basis "ao basis" -> "ao basis" (cartesian)
                      -----
  O (Oxygen)
  ----------
            Exponent  Coefficients 
       -------------- ---------------------------------------------------------
  1 S  5.48467170E+03  0.001831
  1 S  8.25234950E+02  0.013950
  1 S  1.88046960E+02  0.068445
  1 S  5.29645000E+01  0.232714
  1 S  1.68975700E+01  0.470193
  1 S  5.79963530E+00  0.358521

  2 S  1.55396160E+01 -0.110778
  2 S  3.59993360E+00 -0.148026
  2 S  1.01376180E+00  1.130767

  3 P  1.55396160E+01  0.070874
  3 P  3.59993360E+00  0.339753
  3 P  1.01376180E+00  0.727159

  4 S  2.70005800E-01  1.000000

  5 P  2.70005800E-01  1.000000

  6 D  8.00000000E-01  1.000000

  H (Hydrogen)
  ------------
            Exponent  Coefficients 
       -------------- ---------------------------------------------------------
  1 S  1.87311370E+01  0.033495
  1 S  2.82539370E+00  0.234727
  1 S  6.40121700E-01  0.813757

  2 S  1.61277800E-01  1.000000



 Summary of "ao basis" -> "ao basis" (cartesian)
 ------------------------------------------------------------------------------
       Tag                 Description            Shells   Functions and Types
 ---------------- ------------------------------  ------  ---------------------
 O                           6-31G*                  6       15   3s2p1d
 H                           6-31G*                  2        2   2s




 Summary of "ao basis" -> "ao basis" (cartesian)
 ------------------------------------------------------------------------------
       Tag                 Description            Shells   Functions and Types
 ---------------- ------------------------------  ------  ---------------------
 O                           6-31G*                  6       15   3s2p1d
 H                           6-31G*                  2        2   2s


      Symmetry analysis of basis
      --------------------------

        a'         15
        a"          4

  Caching 1-el integrals 

            General Information
            -------------------
          SCF calculation type: DFT
          Wavefunction type:  closed shell.
          No. of atoms     :     3
          No. of electrons :    10
           Alpha electrons :     5
            Beta electrons :     5
          Charge           :     0
          Spin multiplicity:     1
          Use of symmetry is: on ; symmetry adaption is: on 
          Maximum number of iterations:  30
          AO basis - number of functions:    19
                     number of shells:    10
          Convergence on energy requested:  1.00D-06
          Convergence on density requested:  1.00D-05
          Convergence on gradient requested:  5.00D-04

              XC Information
              --------------
                         B3LYP Method XC Potential
                     Hartree-Fock (Exact) Exchange  0.200          
                        Slater Exchange Functional  0.800 local    
                    Becke 1988 Exchange Functional  0.720 non-local
              Lee-Yang-Parr Correlation Functional  0.810          
                  VWN I RPA Correlation Functional  0.190 local    

             Grid Information
             ----------------
          Grid used for XC integration:  medium    
          Radial quadrature: Mura-Knowles        
          Angular quadrature: Lebedev. 
          Tag              B.-S. Rad. Rad. Pts. Rad. Cut. Ang. Pts.
          ---              ---------- --------- --------- ---------
          O                   0.60       49           6.0       434
          H                   0.35       45           7.0       434
          Grid pruning is: on 
          Number of quadrature shells:   139
          Spatial weights used:  Erf1

          Convergence Information
          -----------------------
          Convergence aids based upon iterative change in 
          total energy or number of iterations. 
          Levelshifting, if invoked, occurs when the 
          HOMO/LUMO gap drops below (HL_TOL):  1.00D-02
          DIIS, if invoked, will attempt to extrapolate 
          using up to (NFOCK): 10 stored Fock matrices.

                    Damping( 0%)  Levelshifting(0.5)       DIIS
                  --------------- ------------------- ---------------
          dE  on:    start            ASAP                start   
          dE off:    2 iters         30 iters            30 iters 


      Screening Tolerance Information
      -------------------------------
          Density screening/tol_rho:  1.00D-10
          AO Gaussian exp screening on grid/accAOfunc:  14
          CD Gaussian exp screening on grid/accCDfunc:  20
          XC Gaussian exp screening on grid/accXCfunc:  20
          Schwarz screening/accCoul:  1.00D-08


      Superposition of Atomic Density Guess
      -------------------------------------

 Sum of atomic energies:         -75.75081731

      Non-variational initial energy
      ------------------------------

 Total energy =     -75.463363
 1-e energy   =    -117.698652
 2-e energy   =      35.260998
 HOMO         =      -0.423151
 LUMO         =      -0.135187


      Symmetry analysis of molecular orbitals - initial
      -------------------------------------------------

  Numbering of irreducible representations: 

     1 a'          2 a"      

  Orbital symmetries:

     1 a'          2 a'          3 a'          4 a'          5 a"      
     6 a'          7 a'          8 a'          9 a'         10 a'      
    11 a"         12 a'         13 a'         14 a'         15 a"      

   Time after variat. SCF:      0.1
   Time prior to 1st pass:      0.1

 #quartets = 1.540D+03 #integrals = 8.932D+03 #direct =  0.0% #cached =100.0%


 Integral file          = ./molecule.aoints.0
 Record size in doubles =  65536        No. of integs per rec  =  43688
 Max. records in memory =      2        Max. records in file   =  20498
 No. of bits per label  =      8        No. of bits per value  =     64


 Grid_pts file          = ./molecule.gridpts.0
 Record size in doubles =  12289        No. of grid_pts per rec  =   3070
 Max. records in memory =     23        Max. recs in file   =    109320


           Memory utilization after 1st SCF pass: 
           Heap Space remaining (MW):      261.73           261728634
          Stack Space remaining (MW):      262.14           262143764

   convergence    iter        energy       DeltaE   RMS-Dens  Diis-err    time
 ---------------- ----- ----------------- --------- --------- ---------  ------
 d= 0,ls=0.0,diis     1    -76.0813278522 -8.31D+01  1.09D-01  8.26D-01     0.2
 d= 0,ls=0.0,diis     2    -75.4477132859  6.34D-01  7.46D-02  4.95D+00     0.2
 d= 0,ls=0.0,diis     3    -76.2418726254 -7.94D-01  4.89D-03  4.77D-02     0.2
 d= 0,ls=0.0,diis     4    -76.2473348680 -5.46D-03  2.31D-03  6.49D-03     0.2
 d= 0,ls=0.0,diis     5    -76.2482398107 -9.05D-04  3.07D-04  6.30D-05     0.3
  Resetting Diis
 d= 0,ls=0.0,diis     6    -76.2482437565 -3.95D-06  1.48D-04  1.81D-05     0.3
 d= 0,ls=0.0,diis     7    -76.2482464789 -2.72D-06  7.64D-05  3.07D-07     0.3
 d= 0,ls=0.0,diis     8    -76.2482459172  5.62D-07  5.49D-05  4.55D-06     0.3
 d= 0,ls=0.0,diis     9    -76.2482465261 -6.09D-07  4.04D-06  1.46D-08     0.3


         Total DFT energy =      -76.248246526069
      One electron energy =     -118.676002199643
           Coulomb energy =       44.591379256433
    Exchange-Corr. energy =       -9.137914299656
 Nuclear repulsion energy =        6.974290716798

 Numeric. integr. density =       10.000000668306

     Total iterative time =      0.2s



                  Occupations of the irreducible representations
                  ----------------------------------------------

                     irrep           alpha         beta
                     --------     --------     --------
                     a'                4.0          4.0
                     a"                1.0          1.0


                       DFT Final Molecular Orbital Analysis
                       ------------------------------------

 Vector    1  Occ=2.000000D+00  E=-1.918660D+01  Symmetry=a'
              MO Center= -9.5D-02,  2.0D-01, -5.3D-29, r^2= 1.5D-02
   Bfn.  Coefficient  Atom+Function         Bfn.  Coefficient  Atom+Function  
  ----- ------------  ---------------      ----- ------------  ---------------
     1      0.992996  1 O  s                  2      0.026123  1 O  s          

 Vector    2  Occ=2.000000D+00  E=-9.613775D-01  Symmetry=a'
              MO Center=  1.3D-01,  1.6D-01, -2.9D-16, r^2= 4.8D-01
   Bfn.  Coefficient  Atom+Function         Bfn.  Coefficient  Atom+Function  
  ----- ------------  ---------------      ----- ------------  ---------------
     2      0.488329  1 O  s                  6      0.473942  1 O  s          
     1     -0.215828  1 O  s                 16      0.169972  2 H  s          
     3      0.130021  1 O  px                 7      0.059641  1 O  px         

 Vector    3  Occ=2.000000D+00  E=-4.375292D-01  Symmetry=a'
              MO Center= -4.9D-02,  1.8D-01,  6.5D-16, r^2= 7.4D-01
   Bfn.  Coefficient  Atom+Function         Bfn.  Coefficient  Atom+Function  
  ----- ------------  ---------------      ----- ------------  ---------------
     3      0.538587  1 O  px                 6     -0.387924  1 O  s          
     7      0.292899  1 O  px                16      0.268155  2 H  s          
    17      0.192550  2 H  s                  2     -0.169241  1 O  s          
     1      0.085040  1 O  s                 10      0.048512  1 O  dxx        
    19     -0.040490  3 H  s                  4     -0.033054  1 O  py         

 Vector    4  Occ=2.000000D+00  E=-3.445993D-01  Symmetry=a'
              MO Center= -8.2D-02, -5.7D-01,  7.1D-17, r^2= 1.5D+00
   Bfn.  Coefficient  Atom+Function         Bfn.  Coefficient  Atom+Function  
  ----- ------------  ---------------      ----- ------------  ---------------
     4      0.465448  1 O  py                19     -0.397067  3 H  s          
     8      0.334919  1 O  py                18     -0.254907  3 H  s          
     6      0.101706  1 O  s                  2      0.062019  1 O  s          
    11      0.036578  1 O  dxy                3      0.028892  1 O  px         
     1     -0.025388  1 O  s          

 Vector    5  Occ=2.000000D+00  E=-2.945500D-01  Symmetry=a"
              MO Center= -7.8D-02,  1.9D-01, -4.5D-16, r^2= 5.8D-01
   Bfn.  Coefficient  Atom+Function         Bfn.  Coefficient  Atom+Function  
  ----- ------------  ---------------      ----- ------------  ---------------
     5      0.661695  1 O  pz                 9      0.487530  1 O  pz         
    12      0.050479  1 O  dxz        

 Vector    6  Occ=0.000000D+00  E=-1.535049D-01  Symmetry=a'
              MO Center= -7.2D-02, -9.1D-01, -8.1D-18, r^2= 1.8D+00
   Bfn.  Coefficient  Atom+Function         Bfn.  Coefficient  Atom+Function  
  ----- ------------  ---------------      ----- ------------  ---------------
    19      0.608355  3 H  s                  4      0.467025  1 O  py         
     8      0.396690  1 O  py                18      0.310951  3 H  s          
     6     -0.168816  1 O  s                 17      0.081606  2 H  s          
     2     -0.053086  1 O  s                 11      0.034144  1 O  dxy        
     3      0.031814  1 O  px                 1      0.026460  1 O  s          

 Vector    7  Occ=0.000000D+00  E= 1.044947D-01  Symmetry=a'
              MO Center=  1.1D+00,  8.1D-02, -1.3D-17, r^2= 1.6D+00
   Bfn.  Coefficient  Atom+Function         Bfn.  Coefficient  Atom+Function  
  ----- ------------  ---------------      ----- ------------  ---------------
    17      1.593404  2 H  s                  6     -0.988417  1 O  s          
     7     -0.596757  1 O  px                 3     -0.345733  1 O  px         
    19     -0.172645  3 H  s                 16      0.136375  2 H  s          
     2     -0.086442  1 O  s                 18     -0.076999  3 H  s          
     1      0.073057  1 O  s                 15      0.045188  1 O  dzz        

 Vector    8  Occ=0.000000D+00  E= 7.512204D-01  Symmetry=a'
              MO Center= -1.1D-01, -1.6D+00,  2.5D-16, r^2= 1.6D+00
   Bfn.  Coefficient  Atom+Function         Bfn.  Coefficient  Atom+Function  
  ----- ------------  ---------------      ----- ------------  ---------------
    19     -1.241477  3 H  s                 18      1.224812  3 H  s          
     8     -0.336764  1 O  py                 3     -0.238159  1 O  px         
     4      0.155686  1 O  py                 7      0.145731  1 O  px         
    16      0.111138  2 H  s                  6      0.099243  1 O  s          
     2      0.031549  1 O  s                 15     -0.027806  1 O  dzz        

 Vector    9  Occ=0.000000D+00  E= 8.375571D-01  Symmetry=a'
              MO Center=  5.1D-01,  1.6D-01, -6.8D-16, r^2= 1.3D+00
   Bfn.  Coefficient  Atom+Function         Bfn.  Coefficient  Atom+Function  
  ----- ------------  ---------------      ----- ------------  ---------------
    16      1.111331  2 H  s                 17     -0.783236  2 H  s          
     3     -0.384767  1 O  px                19      0.369679  3 H  s          
     4      0.322302  1 O  py                18     -0.282977  3 H  s          
     6     -0.255858  1 O  s                 10      0.236569  1 O  dxx        
     8     -0.226558  1 O  py                 7     -0.134090  1 O  px         

 Vector   10  Occ=0.000000D+00  E= 8.706672D-01  Symmetry=a'
              MO Center= -4.9D-01,  2.6D-01,  1.0D-15, r^2= 1.5D+00
   Bfn.  Coefficient  Atom+Function         Bfn.  Coefficient  Atom+Function  
  ----- ------------  ---------------      ----- ------------  ---------------
     6      1.883661  1 O  s                  2     -1.038048  1 O  s          
     7     -0.630541  1 O  px                 3      0.453363  1 O  px         
    17     -0.435618  2 H  s                 16      0.407026  2 H  s          
    15     -0.362613  1 O  dzz               13     -0.360515  1 O  dyy        
    19     -0.288672  3 H  s                 10     -0.286619  1 O  dxx        

 Vector   11  Occ=0.000000D+00  E= 8.887371D-01  Symmetry=a"
              MO Center= -9.1D-02,  2.0D-01, -2.9D-16, r^2= 1.1D+00
   Bfn.  Coefficient  Atom+Function         Bfn.  Coefficient  Atom+Function  
  ----- ------------  ---------------      ----- ------------  ---------------
     9      1.047590  1 O  pz                 5     -0.947720  1 O  pz         
    12      0.025336  1 O  dxz        

 Vector   12  Occ=0.000000D+00  E= 9.562116D-01  Symmetry=a'
              MO Center= -8.1D-02,  2.5D-03, -2.6D-17, r^2= 1.3D+00
   Bfn.  Coefficient  Atom+Function         Bfn.  Coefficient  Atom+Function  
  ----- ------------  ---------------      ----- ------------  ---------------
     8      1.039864  1 O  py                 4     -0.853640  1 O  py         
    17     -0.407846  2 H  s                  3     -0.404998  1 O  px         
     7      0.391668  1 O  px                19      0.325553  3 H  s          
    16      0.284436  2 H  s                  6     -0.170811  1 O  s          
     2      0.118755  1 O  s                 10      0.100764  1 O  dxx        

 Vector   13  Occ=0.000000D+00  E= 1.123328D+00  Symmetry=a'
              MO Center=  3.6D-01,  6.0D-02, -1.9D-16, r^2= 1.4D+00
   Bfn.  Coefficient  Atom+Function         Bfn.  Coefficient  Atom+Function  
  ----- ------------  ---------------      ----- ------------  ---------------
     6      2.766406  1 O  s                  7      1.380270  1 O  px         
    17     -1.234990  2 H  s                  2     -1.182283  1 O  s          
     3     -0.634521  1 O  px                10     -0.453881  1 O  dxx        
    13     -0.286250  1 O  dyy               15     -0.274897  1 O  dzz        
     8     -0.265492  1 O  py                16     -0.263882  2 H  s          

 Vector   14  Occ=0.000000D+00  E= 1.741179D+00  Symmetry=a'
              MO Center= -1.1D-01,  2.0D-01,  9.4D-19, r^2= 6.1D-01
   Bfn.  Coefficient  Atom+Function         Bfn.  Coefficient  Atom+Function  
  ----- ------------  ---------------      ----- ------------  ---------------
    11      1.692483  1 O  dxy               10      0.185839  1 O  dxx        
    13     -0.178621  1 O  dyy        

 Vector   15  Occ=0.000000D+00  E= 1.764424D+00  Symmetry=a"
              MO Center= -1.2D-01,  2.0D-01,  1.2D-17, r^2= 6.1D-01
   Bfn.  Coefficient  Atom+Function         Bfn.  Coefficient  Atom+Function  
  ----- ------------  ---------------      ----- ------------  ---------------
    12      1.719624  1 O  dxz               14     -0.198938  1 O  dyz        
     9     -0.030097  1 O  pz         

 Vector   16  Occ=0.000000D+00  E= 1.805098D+00  Symmetry=a"
              MO Center= -9.5D-02,  2.0D-01, -6.3D-22, r^2= 6.1D-01
   Bfn.  Coefficient  Atom+Function         Bfn.  Coefficient  Atom+Function  
  ----- ------------  ---------------      ----- ------------  ---------------
    14      1.720539  1 O  dyz               12      0.199260  1 O  dxz        

 Vector   17  Occ=0.000000D+00  E= 1.815140D+00  Symmetry=a'
              MO Center= -9.6D-02,  1.8D-01, -8.0D-17, r^2= 6.4D-01
   Bfn.  Coefficient  Atom+Function         Bfn.  Coefficient  Atom+Function  
  ----- ------------  ---------------      ----- ------------  ---------------
    13      0.890207  1 O  dyy               15     -0.836508  1 O  dzz        
    11      0.179772  1 O  dxy               19     -0.089006  3 H  s          
     8     -0.054456  1 O  py                17      0.045225  2 H  s          
     7     -0.041654  1 O  px                 4      0.033143  1 O  py         
     2     -0.026800  1 O  s          

 Vector   18  Occ=0.000000D+00  E= 2.479498D+00  Symmetry=a'
              MO Center=  5.9D-02,  1.8D-01,  6.6D-19, r^2= 8.3D-01
   Bfn.  Coefficient  Atom+Function         Bfn.  Coefficient  Atom+Function  
  ----- ------------  ---------------      ----- ------------  ---------------
    16      1.289255  2 H  s                 10     -1.104271  1 O  dxx        
     6     -1.077819  1 O  s                  7     -0.843825  1 O  px         
    15      0.708669  1 O  dzz               13      0.637618  1 O  dyy        
    11      0.387548  1 O  dxy                2      0.322444  1 O  s          
     8      0.118901  1 O  py                17      0.104172  2 H  s          

 Vector   19  Occ=0.000000D+00  E= 3.433083D+00  Symmetry=a'
              MO Center= -1.0D-01,  2.0D-01,  7.3D-19, r^2= 9.5D-01
   Bfn.  Coefficient  Atom+Function         Bfn.  Coefficient  Atom+Function  
  ----- ------------  ---------------      ----- ------------  ---------------
     6      3.120326  1 O  s                 15     -1.482828  1 O  dzz        
    10     -1.468909  1 O  dxx               13     -1.446783  1 O  dyy        
    17     -0.632192  2 H  s                  1     -0.442752  1 O  s          
     2      0.427497  1 O  s                  7      0.289266  1 O  px         
    16      0.160511  2 H  s                  3     -0.109510  1 O  px         


 center of mass
 --------------
 x =  -0.07887729 y =   0.16497605 z =   0.00000000

 moments of inertia (a.u.)
 ------------------
          11.938468144732           0.000000000000           0.000000000000
           0.000000000000           3.028026200536           0.000000000000
           0.000000000000           0.000000000000          14.966494345268

     Multipole analysis of the density
     ---------------------------------

     L   x y z        total         alpha         beta         nuclear
     -   - - -        -----         -----         ----         -------
     0   0 0 0     -0.000000     -5.000000     -5.000000     10.000000

     1   1 0 0      0.668260      0.334130      0.334130      0.000000
     1   0 1 0     -0.583899     -0.291950     -0.291950      0.000000
     1   0 0 1      0.000000      0.000000      0.000000      0.000000

     2   2 0 0     -4.341417     -3.602334     -3.602334      2.863252
     2   1 1 0      0.222084     -0.036688     -0.036688      0.295461
     2   1 0 1      0.000000      0.000000      0.000000      0.000000
     2   0 2 0     -3.099881     -7.163842     -7.163842     11.227802
     2   0 1 1      0.000000      0.000000      0.000000      0.000000
     2   0 0 2     -5.737268     -2.868634     -2.868634      0.000000


 Parallel integral file used       1 records with       0 large values


            General Information
            -------------------
          SCF calculation type: DFT
          Wavefunction type:  closed shell.
          No. of atoms     :     3
          No. of electrons :    10
           Alpha electrons :     5
            Beta electrons :     5
          Charge           :     0
          Spin multiplicity:     1
          Use of symmetry is: on ; symmetry adaption is: on 
          Maximum number of iterations:  30
          AO basis - number of functions:    19
                     number of shells:    10
          Convergence on energy requested:  1.00D-06
          Convergence on density requested:  1.00D-05
          Convergence on gradient requested:  5.00D-04

              XC Information
              --------------
                         B3LYP Method XC Potential
                     Hartree-Fock (Exact) Exchange  0.200          
                        Slater Exchange Functional  0.800 local    
                    Becke 1988 Exchange Functional  0.720 non-local
              Lee-Yang-Parr Correlation Functional  0.810          
                  VWN I RPA Correlation Functional  0.190 local    

             Grid Information
             ----------------
          Grid used for XC integration:  medium    
          Radial quadrature: Mura-Knowles        
          Angular quadrature: Lebedev. 
          Tag              B.-S. Rad. Rad. Pts. Rad. Cut. Ang. Pts.
          ---              ---------- --------- --------- ---------
          O                   0.60       49           6.0       434
          H                   0.35       45           7.0       434
          Grid pruning is: on 
          Number of quadrature shells:   139
          Spatial weights used:  Erf1

          Convergence Information
          -----------------------
          Convergence aids based upon iterative change in 
          total energy or number of iterations. 
          Levelshifting, if invoked, occurs when the 
          HOMO/LUMO gap drops below (HL_TOL):  1.00D-02
          DIIS, if invoked, will attempt to extrapolate 
          using up to (NFOCK): 10 stored Fock matrices.

                    Damping( 0%)  Levelshifting(0.5)       DIIS
                  --------------- ------------------- ---------------
          dE  on:    start            ASAP                start   
          dE off:    2 iters         30 iters            30 iters 


      Screening Tolerance Information
      -------------------------------
          Density screening/tol_rho:  1.00D-10
          AO Gaussian exp screening on grid/accAOfunc:  14
          CD Gaussian exp screening on grid/accCDfunc:  20
          XC Gaussian exp screening on grid/accXCfunc:  20
          Schwarz screening/accCoul:  1.00D-08



                            NWChem DFT Gradient Module
                            --------------------------


                                      Título



  charge          =   0.00
  wavefunction    = closed shell

  Using symmetry


                         DFT ENERGY GRADIENTS

    atom               coordinates                        gradient
                 x          y          z           x          y          z
   1 O      -0.179093   0.374583   0.000000    0.026816   0.082030   0.000000
   2 H       1.605270   0.177270   0.000000   -0.030509  -0.003683   0.000000
   3 H      -0.172523  -3.173937   0.000000    0.003692  -0.078347   0.000000

                 ----------------------------------------
                 |  Time  |  1-e(secs)   |  2-e(secs)   |
                 ----------------------------------------
                 |  CPU   |       0.00   |       0.11   |
                 ----------------------------------------
                 |  WALL  |       0.00   |       0.03   |
                 ----------------------------------------
  no constraints, skipping    0.0000000000000000     

@ Step       Energy      Delta E   Gmax     Grms     Xrms     Xmax   Walltime
@ ---- ---------------- -------- -------- -------- -------- -------- --------
@    0     -76.24824653  0.0D+00  0.07835  0.04858  0.00000  0.00000      0.4
                                                                    



                                Z-matrix (autoz)
                                -------- 

 Units are Angstrom for bonds and degrees for angles

      Type          Name      I     J     K     L     M      Value     Gradient
      ----------- --------  ----- ----- ----- ----- ----- ---------- ----------
    1 Stretch                  1     3                       1.87780    0.07835
    2 Stretch                  1     2                       0.95000   -0.02992
    3 Bend                     2     1     3                83.58385   -0.00666

 Restricting large step in mode    1 eval= 6.0D-02 step=-1.3D+00 new=-3.0D-01
  no constraints, skipping    0.0000000000000000     
  no constraints, skipping    0.0000000000000000     
  no constraints, skipping    0.0000000000000000     
  no constraints, skipping    0.0000000000000000     
  no constraints, skipping    0.0000000000000000     

                                 NWChem DFT Module
                                 -----------------


                                      Título




 Summary of "ao basis" -> "ao basis" (cartesian)
 ------------------------------------------------------------------------------
       Tag                 Description            Shells   Functions and Types
 ---------------- ------------------------------  ------  ---------------------
 O                           6-31G*                  6       15   3s2p1d
 H                           6-31G*                  2        2   2s


      Symmetry analysis of basis
      --------------------------

        a'         15
        a"          4

  Caching 1-el integrals 

            General Information
            -------------------
          SCF calculation type: DFT
          Wavefunction type:  closed shell.
          No. of atoms     :     3
          No. of electrons :    10
           Alpha electrons :     5
            Beta electrons :     5
          Charge           :     0
          Spin multiplicity:     1
          Use of symmetry is: on ; symmetry adaption is: on 
          Maximum number of iterations:  30
          AO basis - number of functions:    19
                     number of shells:    10
          Convergence on energy requested:  1.00D-06
          Convergence on density requested:  1.00D-05
          Convergence on gradient requested:  5.00D-04

              XC Information
              --------------
                         B3LYP Method XC Potential
                     Hartree-Fock (Exact) Exchange  0.200          
                        Slater Exchange Functional  0.800 local    
                    Becke 1988 Exchange Functional  0.720 non-local
              Lee-Yang-Parr Correlation Functional  0.810          
                  VWN I RPA Correlation Functional  0.190 local    

             Grid Information
             ----------------
          Grid used for XC integration:  medium    
          Radial quadrature: Mura-Knowles        
          Angular quadrature: Lebedev. 
          Tag              B.-S. Rad. Rad. Pts. Rad. Cut. Ang. Pts.
          ---              ---------- --------- --------- ---------
          O                   0.60       49           6.0       434
          H                   0.35       45           7.0       434
          Grid pruning is: on 
          Number of quadrature shells:   139
          Spatial weights used:  Erf1

          Convergence Information
          -----------------------
          Convergence aids based upon iterative change in 
          total energy or number of iterations. 
          Levelshifting, if invoked, occurs when the 
          HOMO/LUMO gap drops below (HL_TOL):  1.00D-02
          DIIS, if invoked, will attempt to extrapolate 
          using up to (NFOCK): 10 stored Fock matrices.

                    Damping( 0%)  Levelshifting(0.5)       DIIS
                  --------------- ------------------- ---------------
          dE  on:    start            ASAP                start   
          dE off:    2 iters         30 iters            30 iters 


      Screening Tolerance Information
      -------------------------------
          Density screening/tol_rho:  1.00D-10
          AO Gaussian exp screening on grid/accAOfunc:  14
          CD Gaussian exp screening on grid/accCDfunc:  20
          XC Gaussian exp screening on grid/accXCfunc:  20
          Schwarz screening/accCoul:  1.00D-08


 Loading old vectors from job with title :

Título


      Symmetry analysis of molecular orbitals - initial
      -------------------------------------------------

  Numbering of irreducible representations: 

     1 a'          2 a"      

  Orbital symmetries:

     1 a'          2 a'          3 a'          4 a'          5 a"      
     6 a'          7 a'          8 a'          9 a'         10 a'      
    11 a"         12 a'         13 a'         14 a'         15 a"      

   Time after variat. SCF:      0.4
   Time prior to 1st pass:      0.4

 #quartets = 1.540D+03 #integrals = 8.940D+03 #direct =  0.0% #cached =100.0%


 Integral file          = ./molecule.aoints.0
 Record size in doubles =  65536        No. of integs per rec  =  43688
 Max. records in memory =      2        Max. records in file   =  20498
 No. of bits per label  =      8        No. of bits per value  =     64


 Grid_pts file          = ./molecule.gridpts.0
 Record size in doubles =  12289        No. of grid_pts per rec  =   3070
 Max. records in memory =     23        Max. recs in file   =    109320


           Memory utilization after 1st SCF pass: 
           Heap Space remaining (MW):      261.73           261728634
          Stack Space remaining (MW):      262.14           262143764

   convergence    iter        energy       DeltaE   RMS-Dens  Diis-err    time
 ---------------- ----- ----------------- --------- --------- ---------  ------
 d= 0,ls=0.0,diis     1    -76.2727626250 -8.33D+01  5.80D-03  8.59D-03     0.5
 d= 0,ls=0.0,diis     2    -76.2748864311 -2.12D-03  4.01D-03  1.51D-03     0.5
 d= 0,ls=0.0,diis     3    -76.2738274787  1.06D-03  2.53D-03  1.05D-02     0.5
 d= 0,ls=0.0,diis     4    -76.2751262831 -1.30D-03  2.71D-04  4.38D-05     0.6
 d= 0,ls=0.0,diis     5    -76.2751340050 -7.72D-06  4.42D-05  7.15D-07     0.6
 d= 0,ls=0.0,diis     6    -76.2751341570 -1.52D-07  6.45D-06  3.35D-08     0.6


         Total DFT energy =      -76.275134156959
      One electron energy =     -118.799444725573
           Coulomb energy =       44.663961643004
    Exchange-Corr. energy =       -9.134408654495
 Nuclear repulsion energy =        6.994757580105

 Numeric. integr. density =        9.999998875250

     Total iterative time =      0.2s



                  Occupations of the irreducible representations
                  ----------------------------------------------

                     irrep           alpha         beta
                     --------     --------     --------
                     a'                4.0          4.0
                     a"                1.0          1.0


                       DFT Final Molecular Orbital Analysis
                       ------------------------------------

 Vector    1  Occ=2.000000D+00  E=-1.918631D+01  Symmetry=a'
              MO Center= -1.2D-01,  1.1D-01,  9.2D-29, r^2= 1.5D-02
   Bfn.  Coefficient  Atom+Function         Bfn.  Coefficient  Atom+Function  
  ----- ------------  ---------------      ----- ------------  ---------------
     1      0.993011  1 O  s                  2      0.026074  1 O  s          

 Vector    2  Occ=2.000000D+00  E=-9.485387D-01  Symmetry=a'
              MO Center=  9.0D-02,  8.4D-02,  1.3D-17, r^2= 4.9D-01
   Bfn.  Coefficient  Atom+Function         Bfn.  Coefficient  Atom+Function  
  ----- ------------  ---------------      ----- ------------  ---------------
     2      0.489108  1 O  s                  6      0.488860  1 O  s          
     1     -0.217203  1 O  s                 16      0.155642  2 H  s          
     3      0.118042  1 O  px                 7      0.060335  1 O  px         
    18      0.025168  3 H  s          

 Vector    3  Occ=2.000000D+00  E=-4.322006D-01  Symmetry=a'
              MO Center= -2.8D-02,  6.8D-02,  1.2D-16, r^2= 8.0D-01
   Bfn.  Coefficient  Atom+Function         Bfn.  Coefficient  Atom+Function  
  ----- ------------  ---------------      ----- ------------  ---------------
     3      0.529995  1 O  px                 6     -0.352803  1 O  s          
     7      0.295099  1 O  px                16      0.269599  2 H  s          
    17      0.204246  2 H  s                  2     -0.152415  1 O  s          
     1      0.077260  1 O  s                 19     -0.074784  3 H  s          
     4      0.051126  1 O  py                18     -0.050276  3 H  s          

 Vector    4  Occ=2.000000D+00  E=-3.537726D-01  Symmetry=a'
              MO Center= -9.9D-02, -5.2D-01,  1.1D-16, r^2= 1.4D+00
   Bfn.  Coefficient  Atom+Function         Bfn.  Coefficient  Atom+Function  
  ----- ------------  ---------------      ----- ------------  ---------------
     4      0.468774  1 O  py                19     -0.369164  3 H  s          
     8      0.331761  1 O  py                18     -0.252475  3 H  s          
     6      0.157473  1 O  s                  2      0.085815  1 O  s          
     3     -0.063473  1 O  px                 7     -0.042199  1 O  px         
     1     -0.037230  1 O  s                 11      0.036756  1 O  dxy        

 Vector    5  Occ=2.000000D+00  E=-2.910743D-01  Symmetry=a"
              MO Center= -1.0D-01,  1.1D-01, -1.8D-16, r^2= 5.8D-01
   Bfn.  Coefficient  Atom+Function         Bfn.  Coefficient  Atom+Function  
  ----- ------------  ---------------      ----- ------------  ---------------
     5      0.660438  1 O  pz                 9      0.488988  1 O  pz         
    12      0.047319  1 O  dxz        

 Vector    6  Occ=0.000000D+00  E=-1.250990D-01  Symmetry=a'
              MO Center= -8.0D-02, -9.4D-01,  2.9D-18, r^2= 1.7D+00
   Bfn.  Coefficient  Atom+Function         Bfn.  Coefficient  Atom+Function  
  ----- ------------  ---------------      ----- ------------  ---------------
    19      0.662962  3 H  s                  4      0.464737  1 O  py         
     8      0.417065  1 O  py                18      0.305836  3 H  s          
     6     -0.240991  1 O  s                 17      0.105285  2 H  s          
     2     -0.065576  1 O  s                  1      0.035056  1 O  s          
    11      0.031229  1 O  dxy                7     -0.027908  1 O  px         

 Vector    7  Occ=0.000000D+00  E= 9.285759D-02  Symmetry=a'
              MO Center=  1.0D+00,  1.0D-01, -6.9D-17, r^2= 1.6D+00
   Bfn.  Coefficient  Atom+Function         Bfn.  Coefficient  Atom+Function  
  ----- ------------  ---------------      ----- ------------  ---------------
    17      1.501168  2 H  s                  6     -0.889151  1 O  s          
     7     -0.593283  1 O  px                 3     -0.364434  1 O  px         
    19     -0.174741  3 H  s                 16      0.154985  2 H  s          
     2     -0.084228  1 O  s                 18     -0.078508  3 H  s          
     1      0.068703  1 O  s                  4     -0.056417  1 O  py         

 Vector    8  Occ=0.000000D+00  E= 7.305740D-01  Symmetry=a'
              MO Center= -9.9D-02, -1.6D+00,  1.9D-16, r^2= 1.5D+00
   Bfn.  Coefficient  Atom+Function         Bfn.  Coefficient  Atom+Function  
  ----- ------------  ---------------      ----- ------------  ---------------
    19      1.309164  3 H  s                 18     -1.188337  3 H  s          
     8      0.449729  1 O  py                 6     -0.408103  1 O  s          
     4     -0.248957  1 O  py                 3      0.204846  1 O  px         
     7     -0.133536  1 O  px                16     -0.112522  2 H  s          
     2      0.109187  1 O  s                 15      0.082559  1 O  dzz        

 Vector    9  Occ=0.000000D+00  E= 8.042840D-01  Symmetry=a'
              MO Center=  6.3D-01,  9.7D-02, -2.2D-16, r^2= 1.3D+00
   Bfn.  Coefficient  Atom+Function         Bfn.  Coefficient  Atom+Function  
  ----- ------------  ---------------      ----- ------------  ---------------
    16      1.150976  2 H  s                 17     -0.957775  2 H  s          
     3     -0.382282  1 O  px                19      0.383340  3 H  s          
    18     -0.251586  3 H  s                 10      0.208363  1 O  dxx        
     4      0.170561  1 O  py                 8     -0.108613  1 O  py         
    13     -0.081048  1 O  dyy                7     -0.061551  1 O  px         

 Vector   10  Occ=0.000000D+00  E= 8.716199D-01  Symmetry=a'
              MO Center= -5.3D-01,  2.4D-01,  5.2D-15, r^2= 1.4D+00
   Bfn.  Coefficient  Atom+Function         Bfn.  Coefficient  Atom+Function  
  ----- ------------  ---------------      ----- ------------  ---------------
     6      1.965190  1 O  s                  2     -1.063483  1 O  s          
     7     -0.583017  1 O  px                 3      0.493062  1 O  px         
    17     -0.386585  2 H  s                 15     -0.364221  1 O  dzz        
    13     -0.356400  1 O  dyy               10     -0.314148  1 O  dxx        
    16      0.279829  2 H  s                 19     -0.273954  3 H  s          

 Vector   11  Occ=0.000000D+00  E= 8.893160D-01  Symmetry=a"
              MO Center= -1.1D-01,  1.1D-01, -5.0D-15, r^2= 1.1D+00
   Bfn.  Coefficient  Atom+Function         Bfn.  Coefficient  Atom+Function  
  ----- ------------  ---------------      ----- ------------  ---------------
     9      1.046940  1 O  pz                 5     -0.948603  1 O  pz         
    12      0.025192  1 O  dxz        

 Vector   12  Occ=0.000000D+00  E= 9.811936D-01  Symmetry=a'
              MO Center= -1.3D-01,  1.9D-02, -5.5D-17, r^2= 1.3D+00
   Bfn.  Coefficient  Atom+Function         Bfn.  Coefficient  Atom+Function  
  ----- ------------  ---------------      ----- ------------  ---------------
     8      1.041032  1 O  py                 4     -0.854993  1 O  py         
     7      0.548213  1 O  px                17     -0.444805  2 H  s          
     3     -0.418929  1 O  px                18      0.248072  3 H  s          
    19      0.183457  3 H  s                 16      0.124695  2 H  s          
     6      0.052065  1 O  s                 13      0.051663  1 O  dyy        

 Vector   13  Occ=0.000000D+00  E= 1.135563D+00  Symmetry=a'
              MO Center=  3.0D-01, -8.8D-02, -1.1D-16, r^2= 1.4D+00
   Bfn.  Coefficient  Atom+Function         Bfn.  Coefficient  Atom+Function  
  ----- ------------  ---------------      ----- ------------  ---------------
     6      2.616927  1 O  s                  7      1.311849  1 O  px         
     2     -1.150973  1 O  s                 17     -1.053892  2 H  s          
     3     -0.600714  1 O  px                10     -0.469439  1 O  dxx        
    16     -0.326175  2 H  s                 18     -0.297153  3 H  s          
    13     -0.294188  1 O  dyy                8     -0.279254  1 O  py         

 Vector   14  Occ=0.000000D+00  E= 1.747177D+00  Symmetry=a'
              MO Center= -1.4D-01,  1.2D-01,  1.7D-18, r^2= 6.1D-01
   Bfn.  Coefficient  Atom+Function         Bfn.  Coefficient  Atom+Function  
  ----- ------------  ---------------      ----- ------------  ---------------
    11      1.730612  1 O  dxy                8     -0.033831  1 O  py         

 Vector   15  Occ=0.000000D+00  E= 1.772126D+00  Symmetry=a"
              MO Center= -1.4D-01,  1.1D-01, -1.6D-17, r^2= 6.1D-01
   Bfn.  Coefficient  Atom+Function         Bfn.  Coefficient  Atom+Function  
  ----- ------------  ---------------      ----- ------------  ---------------
    12      1.731172  1 O  dxz                9     -0.028553  1 O  pz         

 Vector   16  Occ=0.000000D+00  E= 1.806828D+00  Symmetry=a"
              MO Center= -1.2D-01,  1.2D-01,  1.4D-21, r^2= 6.1D-01
   Bfn.  Coefficient  Atom+Function         Bfn.  Coefficient  Atom+Function  
  ----- ------------  ---------------      ----- ------------  ---------------
    14      1.731959  1 O  dyz        

 Vector   17  Occ=0.000000D+00  E= 1.825809D+00  Symmetry=a'
              MO Center= -1.2D-01,  8.2D-02, -1.7D-18, r^2= 6.4D-01
   Bfn.  Coefficient  Atom+Function         Bfn.  Coefficient  Atom+Function  
  ----- ------------  ---------------      ----- ------------  ---------------
    13      0.902268  1 O  dyy               15     -0.830217  1 O  dzz        
    18     -0.112163  3 H  s                  8     -0.080786  1 O  py         
     2     -0.059317  1 O  s                  4      0.052752  1 O  py         
    19     -0.034832  3 H  s                 10     -0.029377  1 O  dxx        
    11      0.028204  1 O  dxy        

 Vector   18  Occ=0.000000D+00  E= 2.411431D+00  Symmetry=a'
              MO Center=  5.1D-02,  1.1D-01,  1.4D-17, r^2= 8.2D-01
   Bfn.  Coefficient  Atom+Function         Bfn.  Coefficient  Atom+Function  
  ----- ------------  ---------------      ----- ------------  ---------------
    16     -1.172785  2 H  s                 10      1.089609  1 O  dxx        
     6      0.967653  1 O  s                  7      0.772357  1 O  px         
    15     -0.693561  1 O  dzz               13     -0.632380  1 O  dyy        
     2     -0.327706  1 O  s                  3     -0.082908  1 O  px         
    17     -0.053283  2 H  s                 19     -0.041618  3 H  s          

 Vector   19  Occ=0.000000D+00  E= 3.435606D+00  Symmetry=a'
              MO Center= -1.2D-01,  1.2D-01, -7.5D-19, r^2= 9.6D-01
   Bfn.  Coefficient  Atom+Function         Bfn.  Coefficient  Atom+Function  
  ----- ------------  ---------------      ----- ------------  ---------------
     6      3.114876  1 O  s                 15     -1.498910  1 O  dzz        
    10     -1.455454  1 O  dxx               13     -1.443792  1 O  dyy        
    17     -0.587601  2 H  s                  1     -0.443192  1 O  s          
     2      0.425509  1 O  s                  7      0.290251  1 O  px         
    16      0.123851  2 H  s                 19     -0.107638  3 H  s          


 center of mass
 --------------
 x =  -0.11256594 y =   0.03373252 z =   0.00000000

 moments of inertia (a.u.)
 ------------------
          10.030789192501          -0.189654310073           0.000000000000
          -0.189654310073           3.344110257614           0.000000000000
           0.000000000000           0.000000000000          13.374899450115

     Multipole analysis of the density
     ---------------------------------

     L   x y z        total         alpha         beta         nuclear
     -   - - -        -----         -----         ----         -------
     0   0 0 0     -0.000000     -5.000000     -5.000000     10.000000

     1   1 0 0      0.671054      0.477225      0.477225     -0.283395
     1   0 1 0     -0.554810      0.274616      0.274616     -1.104043
     1   0 0 1      0.000000      0.000000      0.000000      0.000000

     2   2 0 0     -4.302800     -3.733951     -3.733951      3.165103
     2   1 1 0      0.238785     -0.128165     -0.128165      0.495115
     2   1 0 1      0.000000      0.000000      0.000000      0.000000
     2   0 2 0     -3.070095     -6.336591     -6.336591      9.603086
     2   0 1 1      0.000000      0.000000      0.000000      0.000000
     2   0 0 2     -5.737401     -2.868701     -2.868701      0.000000


 Parallel integral file used       1 records with       0 large values

 Line search: 
     step= 1.00 grad=-2.7D-02 hess= 1.6D-04 energy=    -76.275134 mode=restrict
 new step= 4.00                   predicted energy=    -76.353824
  no constraints, skipping    0.0000000000000000     
  no constraints, skipping    0.0000000000000000     
  no constraints, skipping    0.0000000000000000     
  no constraints, skipping    0.0000000000000000     
  no constraints, skipping    0.0000000000000000     
  no constraints, skipping    0.0000000000000000     

          --------
          Step   1
          --------


                         Geometry "geometry" -> "geometry"
                         ---------------------------------

 Output coordinates in angstroms (scale by  1.889725989 to convert to a.u.)

  No.       Tag          Charge          X              Y              Z
 ---- ---------------- ---------- -------------- -------------- --------------
    1 O                    8.0000    -0.14571248    -0.14102268     0.00000000
    2 H                    1.0000     0.94174142     0.13721636     0.00000000
    3 H                    1.0000    -0.13262396    -1.38374049     0.00000000

      Atomic Mass 
      ----------- 

      O                 15.994910
      H                  1.007825


 Effective nuclear repulsion energy (a.u.)       7.4620370510

            Nuclear Dipole moment (a.u.) 
            ----------------------------
        X                 Y               Z
 ---------------- ---------------- ----------------
    -0.6738429777    -4.4875428038     0.0000000000

      Symmetry information
      --------------------

 Group name             Cs        
 Group number              2
 Group order               2
 No. of unique centers     3

      Symmetry unique atoms

     1    2    3


                                 NWChem DFT Module
                                 -----------------


                                      Título




 Summary of "ao basis" -> "ao basis" (cartesian)
 ------------------------------------------------------------------------------
       Tag                 Description            Shells   Functions and Types
 ---------------- ------------------------------  ------  ---------------------
 O                           6-31G*                  6       15   3s2p1d
 H                           6-31G*                  2        2   2s


      Symmetry analysis of basis
      --------------------------

        a'         15
        a"          4

  Caching 1-el integrals 

            General Information
            -------------------
          SCF calculation type: DFT
          Wavefunction type:  closed shell.
          No. of atoms     :     3
          No. of electrons :    10
           Alpha electrons :     5
            Beta electrons :     5
          Charge           :     0
          Spin multiplicity:     1
          Use of symmetry is: on ; symmetry adaption is: on 
          Maximum number of iterations:  30
          AO basis - number of functions:    19
                     number of shells:    10
          Convergence on energy requested:  1.00D-06
          Convergence on density requested:  1.00D-05
          Convergence on gradient requested:  5.00D-04

              XC Information
              --------------
                         B3LYP Method XC Potential
                     Hartree-Fock (Exact) Exchange  0.200          
                        Slater Exchange Functional  0.800 local    
                    Becke 1988 Exchange Functional  0.720 non-local
              Lee-Yang-Parr Correlation Functional  0.810          
                  VWN I RPA Correlation Functional  0.190 local    

             Grid Information
             ----------------
          Grid used for XC integration:  medium    
          Radial quadrature: Mura-Knowles        
          Angular quadrature: Lebedev. 
          Tag              B.-S. Rad. Rad. Pts. Rad. Cut. Ang. Pts.
          ---              ---------- --------- --------- ---------
          O                   0.60       49           5.0       434
          H                   0.35       45           7.0       434
          Grid pruning is: on 
          Number of quadrature shells:   139
          Spatial weights used:  Erf1

          Convergence Information
          -----------------------
          Convergence aids based upon iterative change in 
          total energy or number of iterations. 
          Levelshifting, if invoked, occurs when the 
          HOMO/LUMO gap drops below (HL_TOL):  1.00D-02
          DIIS, if invoked, will attempt to extrapolate 
          using up to (NFOCK): 10 stored Fock matrices.

                    Damping( 0%)  Levelshifting(0.5)       DIIS
                  --------------- ------------------- ---------------
          dE  on:    start            ASAP                start   
          dE off:    2 iters         30 iters            30 iters 


      Screening Tolerance Information
      -------------------------------
          Density screening/tol_rho:  1.00D-10
          AO Gaussian exp screening on grid/accAOfunc:  14
          CD Gaussian exp screening on grid/accCDfunc:  20
          XC Gaussian exp screening on grid/accXCfunc:  20
          Schwarz screening/accCoul:  1.00D-08


 Loading old vectors from job with title :

Título


      Symmetry analysis of molecular orbitals - initial
      -------------------------------------------------

  Numbering of irreducible representations: 

     1 a'          2 a"      

  Orbital symmetries:

     1 a'          2 a'          3 a'          4 a'          5 a"      
     6 a'          7 a'          8 a'          9 a'         10 a'      
    11 a"         12 a'         13 a'         14 a'         15 a"      

   Time after variat. SCF:      0.6
   Time prior to 1st pass:      0.6

 #quartets = 1.540D+03 #integrals = 8.940D+03 #direct =  0.0% #cached =100.0%


 Integral file          = ./molecule.aoints.0
 Record size in doubles =  65536        No. of integs per rec  =  43688
 Max. records in memory =      2        Max. records in file   =  20496
 No. of bits per label  =      8        No. of bits per value  =     64


 Grid_pts file          = ./molecule.gridpts.0
 Record size in doubles =  12289        No. of grid_pts per rec  =   3070
 Max. records in memory =     23        Max. recs in file   =    109310


           Memory utilization after 1st SCF pass: 
           Heap Space remaining (MW):      261.73           261728634
          Stack Space remaining (MW):      262.14           262143764

   convergence    iter        energy       DeltaE   RMS-Dens  Diis-err    time
 ---------------- ----- ----------------- --------- --------- ---------  ------
 d= 0,ls=0.0,diis     1    -76.3294018845 -8.38D+01  1.82D-02  1.05D-01     0.7
 d= 0,ls=0.0,diis     2    -76.3540721537 -2.47D-02  8.01D-03  1.39D-02     0.7
 d= 0,ls=0.0,diis     3    -76.3522173321  1.85D-03  4.79D-03  3.42D-02     0.7
 d= 0,ls=0.0,diis     4    -76.3555684818 -3.35D-03  1.84D-04  2.01D-05     0.7
 d= 0,ls=0.0,diis     5    -76.3555708850 -2.40D-06  3.96D-05  1.03D-06     0.7
 d= 0,ls=0.0,diis     6    -76.3555710008 -1.16D-07  1.00D-05  4.39D-08     0.8
 d= 0,ls=0.0,diis     7    -76.3555710084 -7.64D-09  7.89D-07  3.82D-10     0.8


         Total DFT energy =      -76.355571008444
      One electron energy =     -119.905304549702
           Coulomb energy =       45.263973935968
    Exchange-Corr. energy =       -9.176277445760
 Nuclear repulsion energy =        7.462037051050

 Numeric. integr. density =        9.999999699345

     Total iterative time =      0.2s



                  Occupations of the irreducible representations
                  ----------------------------------------------

                     irrep           alpha         beta
                     --------     --------     --------
                     a'                4.0          4.0
                     a"                1.0          1.0


                       DFT Final Molecular Orbital Analysis
                       ------------------------------------

 Vector    1  Occ=2.000000D+00  E=-1.917138D+01  Symmetry=a'
              MO Center= -1.5D-01, -1.4D-01,  2.3D-29, r^2= 1.5D-02
   Bfn.  Coefficient  Atom+Function         Bfn.  Coefficient  Atom+Function  
  ----- ------------  ---------------      ----- ------------  ---------------
     1      0.993008  1 O  s                  2      0.026004  1 O  s          

 Vector    2  Occ=2.000000D+00  E=-9.314377D-01  Symmetry=a'
              MO Center= -9.5D-04, -2.1D-01, -2.2D-16, r^2= 5.3D-01
   Bfn.  Coefficient  Atom+Function         Bfn.  Coefficient  Atom+Function  
  ----- ------------  ---------------      ----- ------------  ---------------
     6      0.509603  1 O  s                  2      0.484324  1 O  s          
     1     -0.218069  1 O  s                 16      0.111707  2 H  s          
    18      0.081243  3 H  s                  3      0.080367  1 O  px         
     7      0.051845  1 O  px                 4     -0.037957  1 O  py         
     8     -0.030019  1 O  py         

 Vector    3  Occ=2.000000D+00  E=-4.510126D-01  Symmetry=a'
              MO Center=  5.6D-02, -3.4D-01,  2.0D-17, r^2= 1.0D+00
   Bfn.  Coefficient  Atom+Function         Bfn.  Coefficient  Atom+Function  
  ----- ------------  ---------------      ----- ------------  ---------------
     4      0.364805  1 O  py                 3      0.334171  1 O  px         
    16      0.231157  2 H  s                  8      0.219936  1 O  py         
    18     -0.205814  3 H  s                  7      0.193809  1 O  px         
    17      0.185030  2 H  s                 19     -0.185092  3 H  s          
     6     -0.068231  1 O  s                 10      0.034057  1 O  dxx        

 Vector    4  Occ=2.000000D+00  E=-3.608347D-01  Symmetry=a'
              MO Center= -1.3D-01, -2.2D-01, -5.1D-16, r^2= 9.2D-01
   Bfn.  Coefficient  Atom+Function         Bfn.  Coefficient  Atom+Function  
  ----- ------------  ---------------      ----- ------------  ---------------
     3      0.401389  1 O  px                 6     -0.355396  1 O  s          
     4     -0.343389  1 O  py                 7      0.269390  1 O  px         
     8     -0.236225  1 O  py                19      0.194207  3 H  s          
    18      0.176398  3 H  s                  2     -0.159372  1 O  s          
    17      0.147109  2 H  s                 16      0.145674  2 H  s          

 Vector    5  Occ=2.000000D+00  E=-2.823975D-01  Symmetry=a"
              MO Center= -1.3D-01, -1.5D-01,  7.3D-16, r^2= 5.9D-01
   Bfn.  Coefficient  Atom+Function         Bfn.  Coefficient  Atom+Function  
  ----- ------------  ---------------      ----- ------------  ---------------
     5      0.652847  1 O  pz                 9      0.497422  1 O  pz         
    12      0.037967  1 O  dxz        

 Vector    6  Occ=0.000000D+00  E=-9.180677D-03  Symmetry=a'
              MO Center=  1.3D-01, -9.1D-01, -1.0D-16, r^2= 2.0D+00
   Bfn.  Coefficient  Atom+Function         Bfn.  Coefficient  Atom+Function  
  ----- ------------  ---------------      ----- ------------  ---------------
    19      0.896829  3 H  s                  6     -0.768608  1 O  s          
    17      0.532841  2 H  s                  8      0.398723  1 O  py         
     4      0.328626  1 O  py                 7     -0.262178  1 O  px         
    18      0.213934  3 H  s                  3     -0.197237  1 O  px         
     2     -0.123098  1 O  s                 16      0.098498  2 H  s          

 Vector    7  Occ=0.000000D+00  E= 7.073580D-02  Symmetry=a'
              MO Center=  6.6D-01, -1.7D-01,  2.4D-17, r^2= 2.1D+00
   Bfn.  Coefficient  Atom+Function         Bfn.  Coefficient  Atom+Function  
  ----- ------------  ---------------      ----- ------------  ---------------
    17      1.150983  2 H  s                 19     -0.604867  3 H  s          
     7     -0.489788  1 O  px                 8     -0.401012  1 O  py         
     6     -0.344835  1 O  s                  3     -0.340009  1 O  px         
     4     -0.297327  1 O  py                16      0.184978  2 H  s          
    18     -0.133540  3 H  s                  2     -0.037249  1 O  s          

 Vector    8  Occ=0.000000D+00  E= 6.953284D-01  Symmetry=a'
              MO Center= -1.5D-01, -1.4D+00, -4.7D-17, r^2= 1.2D+00
   Bfn.  Coefficient  Atom+Function         Bfn.  Coefficient  Atom+Function  
  ----- ------------  ---------------      ----- ------------  ---------------
    19      1.301141  3 H  s                 18     -1.122290  3 H  s          
     6     -0.559415  1 O  s                  4     -0.313701  1 O  py         
     8      0.284489  1 O  py                 2      0.206696  1 O  s          
     3      0.147863  1 O  px                15      0.114939  1 O  dzz        
    13     -0.110502  1 O  dyy                7     -0.097308  1 O  px         

 Vector    9  Occ=0.000000D+00  E= 7.293099D-01  Symmetry=a'
              MO Center=  8.7D-01,  1.5D-01, -5.5D-16, r^2= 1.2D+00
   Bfn.  Coefficient  Atom+Function         Bfn.  Coefficient  Atom+Function  
  ----- ------------  ---------------      ----- ------------  ---------------
    17     -1.207971  2 H  s                 16      1.140311  2 H  s          
     6      0.373854  1 O  s                  3     -0.349646  1 O  px         
    19      0.249242  3 H  s                  2     -0.159167  1 O  s          
     7      0.149027  1 O  px                10      0.133413  1 O  dxx        
    11      0.133454  1 O  dxy               18     -0.122269  3 H  s          

 Vector   10  Occ=0.000000D+00  E= 8.870908D-01  Symmetry=a'
              MO Center= -5.2D-01,  9.7D-02, -2.7D-14, r^2= 1.2D+00
   Bfn.  Coefficient  Atom+Function         Bfn.  Coefficient  Atom+Function  
  ----- ------------  ---------------      ----- ------------  ---------------
     6      1.800905  1 O  s                  2     -0.960612  1 O  s          
     7     -0.586335  1 O  px                 3      0.553384  1 O  px         
     4     -0.380976  1 O  py                 8      0.375558  1 O  py         
    15     -0.329532  1 O  dzz               10     -0.298596  1 O  dxx        
    13     -0.293362  1 O  dyy               17     -0.291508  2 H  s          

 Vector   11  Occ=0.000000D+00  E= 8.914862D-01  Symmetry=a"
              MO Center= -1.4D-01, -1.4D-01,  2.9D-14, r^2= 1.1D+00
   Bfn.  Coefficient  Atom+Function         Bfn.  Coefficient  Atom+Function  
  ----- ------------  ---------------      ----- ------------  ---------------
     9     -1.043016  1 O  pz                 5      0.953849  1 O  pz         

 Vector   12  Occ=0.000000D+00  E= 1.045965D+00  Symmetry=a'
              MO Center= -2.4D-01, -5.0D-02,  3.2D-17, r^2= 1.3D+00
   Bfn.  Coefficient  Atom+Function         Bfn.  Coefficient  Atom+Function  
  ----- ------------  ---------------      ----- ------------  ---------------
     8      1.169746  1 O  py                 7      0.864456  1 O  px         
     4     -0.765985  1 O  py                 3     -0.535138  1 O  px         
    17     -0.519286  2 H  s                 19      0.395989  3 H  s          
    18      0.209990  3 H  s                 16     -0.135471  2 H  s          
     6      0.117207  1 O  s                 13      0.110441  1 O  dyy        

 Vector   13  Occ=0.000000D+00  E= 1.157715D+00  Symmetry=a'
              MO Center=  2.9D-01, -4.4D-01, -1.1D-15, r^2= 1.2D+00
   Bfn.  Coefficient  Atom+Function         Bfn.  Coefficient  Atom+Function  
  ----- ------------  ---------------      ----- ------------  ---------------
     6      2.738728  1 O  s                  2     -1.240906  1 O  s          
     7      0.936148  1 O  px                17     -0.591589  2 H  s          
     8     -0.560621  1 O  py                13     -0.498649  1 O  dyy        
     3     -0.460476  1 O  px                10     -0.451987  1 O  dxx        
    18     -0.391364  3 H  s                 16     -0.366319  2 H  s          

 Vector   14  Occ=0.000000D+00  E= 1.766957D+00  Symmetry=a'
              MO Center= -1.8D-01, -1.2D-01,  5.4D-18, r^2= 6.2D-01
   Bfn.  Coefficient  Atom+Function         Bfn.  Coefficient  Atom+Function  
  ----- ------------  ---------------      ----- ------------  ---------------
    11      1.567974  1 O  dxy               10     -0.402952  1 O  dxx        
    15      0.317149  1 O  dzz                6      0.138310  1 O  s          
     7      0.074403  1 O  px                 2     -0.064014  1 O  s          
    18     -0.064069  3 H  s                  8     -0.063477  1 O  py         
    16     -0.051719  2 H  s                 13      0.040994  1 O  dyy        

 Vector   15  Occ=0.000000D+00  E= 1.782803D+00  Symmetry=a"
              MO Center= -1.5D-01, -1.4D-01,  4.7D-17, r^2= 6.1D-01
   Bfn.  Coefficient  Atom+Function         Bfn.  Coefficient  Atom+Function  
  ----- ------------  ---------------      ----- ------------  ---------------
    12      1.284001  1 O  dxz               14      1.162369  1 O  dyz        

 Vector   16  Occ=0.000000D+00  E= 1.805121D+00  Symmetry=a"
              MO Center= -1.6D-01, -1.3D-01,  4.5D-23, r^2= 6.1D-01
   Bfn.  Coefficient  Atom+Function         Bfn.  Coefficient  Atom+Function  
  ----- ------------  ---------------      ----- ------------  ---------------
    14      1.283856  1 O  dyz               12     -1.161665  1 O  dxz        
     9      0.025811  1 O  pz         

 Vector   17  Occ=0.000000D+00  E= 2.034995D+00  Symmetry=a'
              MO Center= -1.2D-01, -2.7D-01,  3.5D-17, r^2= 7.7D-01
   Bfn.  Coefficient  Atom+Function         Bfn.  Coefficient  Atom+Function  
  ----- ------------  ---------------      ----- ------------  ---------------
    15      0.962730  1 O  dzz               13     -0.744186  1 O  dyy        
     6     -0.677667  1 O  s                 18      0.582776  3 H  s          
    11     -0.369087  1 O  dxy                2      0.363901  1 O  s          
     8      0.316991  1 O  py                16      0.294970  2 H  s          
     7     -0.239534  1 O  px                 4     -0.128915  1 O  py         

 Vector   18  Occ=0.000000D+00  E= 2.263881D+00  Symmetry=a'
              MO Center= -5.5D-04, -1.4D-01, -5.0D-18, r^2= 8.3D-01
   Bfn.  Coefficient  Atom+Function         Bfn.  Coefficient  Atom+Function  
  ----- ------------  ---------------      ----- ------------  ---------------
    10      0.964838  1 O  dxx               16     -0.834641  2 H  s          
    13     -0.723425  1 O  dyy               11      0.676477  1 O  dxy        
     7      0.487023  1 O  px                 6      0.419238  1 O  s          
    15     -0.361504  1 O  dzz               18      0.355158  3 H  s          
     8      0.280018  1 O  py                 2     -0.164293  1 O  s          

 Vector   19  Occ=0.000000D+00  E= 3.461303D+00  Symmetry=a'
              MO Center= -1.5D-01, -1.4D-01,  1.5D-18, r^2= 9.8D-01
   Bfn.  Coefficient  Atom+Function         Bfn.  Coefficient  Atom+Function  
  ----- ------------  ---------------      ----- ------------  ---------------
     6      3.256266  1 O  s                 15     -1.554569  1 O  dzz        
    10     -1.469161  1 O  dxx               13     -1.435513  1 O  dyy        
     1     -0.450769  1 O  s                 17     -0.451256  2 H  s          
     2      0.382006  1 O  s                 19     -0.342432  3 H  s          
     7      0.251259  1 O  px                 8     -0.159827  1 O  py         


 center of mass
 --------------
 x =  -0.15898063 y =  -0.36848230 z =   0.00000000

 moments of inertia (a.u.)
 ------------------
           5.649405271659          -1.244187146098           0.000000000000
          -1.244187146098           4.012721013078           0.000000000000
           0.000000000000           0.000000000000           9.662126284737

     Multipole analysis of the density
     ---------------------------------

     L   x y z        total         alpha         beta         nuclear
     -   - - -        -----         -----         ----         -------
     0   0 0 0     -0.000000     -5.000000     -5.000000     10.000000

     1   1 0 0      0.648524      0.661184      0.661184     -0.673843
     1   0 1 0     -0.495869      1.995837      1.995837     -4.487543
     1   0 0 1      0.000000      0.000000      0.000000      0.000000

     2   2 0 0     -4.111342     -3.973909     -3.973909      3.836477
     2   1 1 0      0.438568     -0.632646     -0.632646      1.703860
     2   1 0 1      0.000000      0.000000      0.000000      0.000000
     2   0 2 0     -2.989357     -5.231199     -5.231199      7.473042
     2   0 1 1      0.000000      0.000000      0.000000      0.000000
     2   0 0 2     -5.638562     -2.819281     -2.819281      0.000000


 Parallel integral file used       1 records with       0 large values


            General Information
            -------------------
          SCF calculation type: DFT
          Wavefunction type:  closed shell.
          No. of atoms     :     3
          No. of electrons :    10
           Alpha electrons :     5
            Beta electrons :     5
          Charge           :     0
          Spin multiplicity:     1
          Use of symmetry is: on ; symmetry adaption is: on 
          Maximum number of iterations:  30
          AO basis - number of functions:    19
                     number of shells:    10
          Convergence on energy requested:  1.00D-06
          Convergence on density requested:  1.00D-05
          Convergence on gradient requested:  5.00D-04

              XC Information
              --------------
                         B3LYP Method XC Potential
                     Hartree-Fock (Exact) Exchange  0.200          
                        Slater Exchange Functional  0.800 local    
                    Becke 1988 Exchange Functional  0.720 non-local
              Lee-Yang-Parr Correlation Functional  0.810          
                  VWN I RPA Correlation Functional  0.190 local    

             Grid Information
             ----------------
          Grid used for XC integration:  medium    
          Radial quadrature: Mura-Knowles        
          Angular quadrature: Lebedev. 
          Tag              B.-S. Rad. Rad. Pts. Rad. Cut. Ang. Pts.
          ---              ---------- --------- --------- ---------
          O                   0.60       49           5.0       434
          H                   0.35       45           7.0       434
          Grid pruning is: on 
          Number of quadrature shells:   139
          Spatial weights used:  Erf1

          Convergence Information
          -----------------------
          Convergence aids based upon iterative change in 
          total energy or number of iterations. 
          Levelshifting, if invoked, occurs when the 
          HOMO/LUMO gap drops below (HL_TOL):  1.00D-02
          DIIS, if invoked, will attempt to extrapolate 
          using up to (NFOCK): 10 stored Fock matrices.

                    Damping( 0%)  Levelshifting(0.5)       DIIS
                  --------------- ------------------- ---------------
          dE  on:    start            ASAP                start   
          dE off:    2 iters         30 iters            30 iters 


      Screening Tolerance Information
      -------------------------------
          Density screening/tol_rho:  1.00D-10
          AO Gaussian exp screening on grid/accAOfunc:  14
          CD Gaussian exp screening on grid/accCDfunc:  20
          XC Gaussian exp screening on grid/accXCfunc:  20
          Schwarz screening/accCoul:  1.00D-08



                            NWChem DFT Gradient Module
                            --------------------------


                                      Título



  charge          =   0.00
  wavefunction    = closed shell

  Using symmetry


                         DFT ENERGY GRADIENTS

    atom               coordinates                        gradient
                 x          y          z           x          y          z
   1 O      -0.275357  -0.266494   0.000000   -0.074795   0.079744   0.000000
   2 H       1.779633   0.259301   0.000000    0.081624   0.030006   0.000000
   3 H      -0.250623  -2.614890   0.000000   -0.006829  -0.109750   0.000000

                 ----------------------------------------
                 |  Time  |  1-e(secs)   |  2-e(secs)   |
                 ----------------------------------------
                 |  CPU   |       0.00   |       0.11   |
                 ----------------------------------------
                 |  WALL  |       0.00   |       0.03   |
                 ----------------------------------------
  no constraints, skipping    0.0000000000000000     

  Step       Energy      Delta E   Gmax     Grms     Xrms     Xmax   Walltime
  ---- ---------------- -------- -------- -------- -------- -------- --------
@    1     -76.35557101 -1.1D-01  0.10967  0.08085  0.29634  0.63890      0.9
                                                                    



                                Z-matrix (autoz)
                                -------- 

 Units are Angstrom for bonds and degrees for angles

      Type          Name      I     J     K     L     M      Value     Gradient
      ----------- --------  ----- ----- ----- ----- ----- ---------- ----------
    1 Stretch                  1     3                       1.24279    0.10967
    2 Stretch                  1     2                       1.12249    0.08651
    3 Bend                     2     1     3               103.74853    0.00992

 Restricting large step in mode    1 eval= 8.6D-04 step=-8.9D+01 new=-3.0D-01
 Restricting large step in mode    2 eval= 5.2D-02 step=-6.5D-01 new=-3.0D-01
 Restricting overall step due to large component. alpha=  0.75
  no constraints, skipping    0.0000000000000000     
[...]
    12      1.398138  1 O  dxz               14     -1.020116  1 O  dyz        
     9     -0.034998  1 O  pz         

 Vector   17  Occ=0.000000D+00  E= 2.280567D+00  Symmetry=a'
              MO Center= -6.5D-03, -3.0D-01, -2.1D-17, r^2= 8.3D-01
   Bfn.  Coefficient  Atom+Function         Bfn.  Coefficient  Atom+Function  
  ----- ------------  ---------------      ----- ------------  ---------------
     6      1.538750  1 O  s                 15     -1.131143  1 O  dzz        
    16     -0.812285  2 H  s                 18     -0.812334  3 H  s          
    11      0.633715  1 O  dxy                7      0.597028  1 O  px         
     2     -0.514848  1 O  s                 13      0.505059  1 O  dyy        
     8     -0.435607  1 O  py                10      0.301856  1 O  dxx        

 Vector   18  Occ=0.000000D+00  E= 2.577093D+00  Symmetry=a'
              MO Center= -5.6D-02, -2.6D-01, -1.4D-21, r^2= 8.6D-01
   Bfn.  Coefficient  Atom+Function         Bfn.  Coefficient  Atom+Function  
  ----- ------------  ---------------      ----- ------------  ---------------
    10      1.049095  1 O  dxx               13     -1.049061  1 O  dyy        
    16     -0.923496  2 H  s                 18      0.923396  3 H  s          
     8      0.680474  1 O  py                11      0.672552  1 O  dxy        
     7      0.496518  1 O  px                17      0.050187  2 H  s          
    19     -0.050211  3 H  s                  4     -0.029846  1 O  py         

 Vector   19  Occ=0.000000D+00  E= 3.551902D+00  Symmetry=a'
              MO Center= -1.0D-01, -2.3D-01, -1.8D-19, r^2= 1.0D+00
   Bfn.  Coefficient  Atom+Function         Bfn.  Coefficient  Atom+Function  
  ----- ------------  ---------------      ----- ------------  ---------------
     6      3.689482  1 O  s                 15     -1.578744  1 O  dzz        
    10     -1.541462  1 O  dxx               13     -1.534273  1 O  dyy        
    17     -0.554531  2 H  s                 19     -0.554512  3 H  s          
     1     -0.467946  1 O  s                  2      0.286716  1 O  s          
     7      0.269803  1 O  px                 8     -0.196842  1 O  py         


 center of mass
 --------------
 x =  -0.08917457 y =  -0.50407700 z =   0.00000000

 moments of inertia (a.u.)
 ------------------
           3.520481031330          -0.896525435263           0.000000000000
          -0.896525435263           2.945652021213           0.000000000000
           0.000000000000           0.000000000000           6.466133052544

     Multipole analysis of the density
     ---------------------------------

     L   x y z        total         alpha         beta         nuclear
     -   - - -        -----         -----         ----         -------
     0   0 0 0     -0.000000     -5.000000     -5.000000     10.000000

     1   1 0 0      0.665970      0.376296      0.376296     -0.086622
     1   0 1 0     -0.485883      2.571153      2.571153     -5.628189
     1   0 0 1      0.000000      0.000000      0.000000      0.000000

     2   2 0 0     -4.024951     -3.400651     -3.400651      2.776350
     2   1 1 0      0.232286     -0.406708     -0.406708      1.045701
     2   1 0 1      0.000000      0.000000      0.000000      0.000000
     2   0 2 0     -3.079964     -4.831207     -4.831207      6.582451
     2   0 1 1      0.000000      0.000000      0.000000      0.000000
     2   0 0 2     -5.355942     -2.677971     -2.677971      0.000000


 Parallel integral file used       1 records with       0 large values

 Line search: 
     step= 1.00 grad=-3.8D-08 hess= 2.1D-08 energy=    -76.408955 mode=accept  
 new step= 1.00                   predicted energy=    -76.408955
  no constraints, skipping    0.0000000000000000     
  no constraints, skipping    0.0000000000000000     
  no constraints, skipping    0.0000000000000000     

          --------
          Step   9
          --------


                         Geometry "geometry" -> "geometry"
                         ---------------------------------

 Output coordinates in angstroms (scale by  1.889725989 to convert to a.u.)

  No.       Tag          Charge          X              Y              Z
 ---- ---------------- ---------- -------------- -------------- --------------
    1 O                    8.0000    -0.10132052    -0.22725179     0.00000000
    2 H                    1.0000     0.83121022     0.03506989     0.00000000
    3 H                    1.0000    -0.06648472    -1.19536492     0.00000000

      Atomic Mass 
      ----------- 

      O                 15.994910
      H                  1.007825


 Effective nuclear repulsion energy (a.u.)       9.0875583728

            Nuclear Dipole moment (a.u.) 
            ----------------------------
        X                 Y               Z
 ---------------- ---------------- ----------------
    -0.0866224446    -5.6281885575     0.0000000000

      Symmetry information
      --------------------

 Group name             Cs        
 Group number              2
 Group order               2
 No. of unique centers     3

      Symmetry unique atoms

     1    2    3


                                 NWChem DFT Module
                                 -----------------


                                      Título




 Summary of "ao basis" -> "ao basis" (cartesian)
 ------------------------------------------------------------------------------
       Tag                 Description            Shells   Functions and Types
 ---------------- ------------------------------  ------  ---------------------
 O                           6-31G*                  6       15   3s2p1d
 H                           6-31G*                  2        2   2s


      Symmetry analysis of basis
      --------------------------

        a'         15
        a"          4


  The DFT is already converged 

         Total DFT energy =    -76.408954535240


            General Information
            -------------------
          SCF calculation type: DFT
          Wavefunction type:  closed shell.
          No. of atoms     :     3
          No. of electrons :    10
           Alpha electrons :     5
            Beta electrons :     5
          Charge           :     0
          Spin multiplicity:     1
          Use of symmetry is: on ; symmetry adaption is: on 
          Maximum number of iterations:  30
          AO basis - number of functions:    19
                     number of shells:    10
          Convergence on energy requested:  1.00D-06
          Convergence on density requested:  1.00D-05
          Convergence on gradient requested:  5.00D-04

              XC Information
              --------------
                         B3LYP Method XC Potential
                     Hartree-Fock (Exact) Exchange  0.200          
                        Slater Exchange Functional  0.800 local    
                    Becke 1988 Exchange Functional  0.720 non-local
              Lee-Yang-Parr Correlation Functional  0.810          
                  VWN I RPA Correlation Functional  0.190 local    

             Grid Information
             ----------------
          Grid used for XC integration:  medium    
          Radial quadrature: Mura-Knowles        
          Angular quadrature: Lebedev. 
          Tag              B.-S. Rad. Rad. Pts. Rad. Cut. Ang. Pts.
          ---              ---------- --------- --------- ---------
          O                   0.60       49           5.0       434
          H                   0.35       45           6.0       434
          Grid pruning is: on 
          Number of quadrature shells:   139
          Spatial weights used:  Erf1

          Convergence Information
          -----------------------
          Convergence aids based upon iterative change in 
          total energy or number of iterations. 
          Levelshifting, if invoked, occurs when the 
          HOMO/LUMO gap drops below (HL_TOL):  1.00D-02
          DIIS, if invoked, will attempt to extrapolate 
          using up to (NFOCK): 10 stored Fock matrices.

                    Damping( 0%)  Levelshifting(0.5)       DIIS
                  --------------- ------------------- ---------------
          dE  on:    start            ASAP                start   
          dE off:    2 iters         30 iters            30 iters 


      Screening Tolerance Information
      -------------------------------
          Density screening/tol_rho:  1.00D-10
          AO Gaussian exp screening on grid/accAOfunc:  14
          CD Gaussian exp screening on grid/accCDfunc:  20
          XC Gaussian exp screening on grid/accXCfunc:  20
          Schwarz screening/accCoul:  1.00D-08



                            NWChem DFT Gradient Module
                            --------------------------


                                      Título



  charge          =   0.00
  wavefunction    = closed shell

  Using symmetry


                         DFT ENERGY GRADIENTS

    atom               coordinates                        gradient
                 x          y          z           x          y          z
   1 O      -0.191468  -0.429444   0.000000    0.000009   0.000008   0.000000
   2 H       1.570760   0.066272   0.000000   -0.000012  -0.000006   0.000000
   3 H      -0.125638  -2.258912   0.000000    0.000003  -0.000002   0.000000

                 ----------------------------------------
                 |  Time  |  1-e(secs)   |  2-e(secs)   |
                 ----------------------------------------
                 |  CPU   |       0.00   |       0.12   |
                 ----------------------------------------
                 |  WALL  |       0.00   |       0.03   |
                 ----------------------------------------
  no constraints, skipping    0.0000000000000000     

  Step       Energy      Delta E   Gmax     Grms     Xrms     Xmax   Walltime
  ---- ---------------- -------- -------- -------- -------- -------- --------
@    9     -76.40895454 -1.7D-08  0.00001  0.00001  0.00015  0.00028      3.6
                                     ok       ok       ok       ok  



                                Z-matrix (autoz)
                                -------- 

 Units are Angstrom for bonds and degrees for angles

      Type          Name      I     J     K     L     M      Value     Gradient
      ----------- --------  ----- ----- ----- ----- ----- ---------- ----------
    1 Stretch                  1     3                       0.96874    0.00000
    2 Stretch                  1     2                       0.96872   -0.00001
    3 Bend                     2     1     3               103.65054   -0.00000


      ----------------------
      Optimization converged
      ----------------------


  Step       Energy      Delta E   Gmax     Grms     Xrms     Xmax   Walltime
  ---- ---------------- -------- -------- -------- -------- -------- --------
@    9     -76.40895454 -1.7D-08  0.00001  0.00001  0.00015  0.00028      3.6
                                     ok       ok       ok       ok  



                                Z-matrix (autoz)
                                -------- 

 Units are Angstrom for bonds and degrees for angles

      Type          Name      I     J     K     L     M      Value     Gradient
      ----------- --------  ----- ----- ----- ----- ----- ---------- ----------
    1 Stretch                  1     3                       0.96874    0.00000
    2 Stretch                  1     2                       0.96872   -0.00001
    3 Bend                     2     1     3               103.65054   -0.00000



                         Geometry "geometry" -> "geometry"
                         ---------------------------------

 Output coordinates in angstroms (scale by  1.889725989 to convert to a.u.)

  No.       Tag          Charge          X              Y              Z
 ---- ---------------- ---------- -------------- -------------- --------------
    1 O                    8.0000    -0.10132052    -0.22725179     0.00000000
    2 H                    1.0000     0.83121022     0.03506989     0.00000000
    3 H                    1.0000    -0.06648472    -1.19536492     0.00000000

      Atomic Mass 
      ----------- 

      O                 15.994910
      H                  1.007825


 Effective nuclear repulsion energy (a.u.)       9.0875583728

            Nuclear Dipole moment (a.u.) 
            ----------------------------
        X                 Y               Z
 ---------------- ---------------- ----------------
    -0.0866224446    -5.6281885575     0.0000000000

      Symmetry information
      --------------------

 Group name             Cs        
 Group number              2
 Group order               2
 No. of unique centers     3

      Symmetry unique atoms

     1    2    3


                Final and change from initial internal coordinates
                --------------------------------------------------



                                Z-matrix (autoz)
                                -------- 

 Units are Angstrom for bonds and degrees for angles

      Type          Name      I     J     K     L     M      Value       Change
      ----------- --------  ----- ----- ----- ----- ----- ---------- ----------
    1 Stretch                  1     3                       0.96874   -0.90906
    2 Stretch                  1     2                       0.96872    0.01872
    3 Bend                     2     1     3               103.65054   20.06670

 ==============================================================================
                                internuclear distances
 ------------------------------------------------------------------------------
       center one      |      center two      | atomic units |  angstroms
 ------------------------------------------------------------------------------
    2 H                |   1 O                |     1.83062  |     0.96872
    3 H                |   1 O                |     1.83065  |     0.96874
 ------------------------------------------------------------------------------
                         number of included internuclear distances:          2
 ==============================================================================



 ==============================================================================
                                 internuclear angles
 ------------------------------------------------------------------------------
        center 1       |       center 2       |       center 3       |  degrees
 ------------------------------------------------------------------------------
    2 H                |   1 O                |   3 H                |   103.65
 ------------------------------------------------------------------------------
                            number of included internuclear angles:          1
 ==============================================================================




 Task  times  cpu:        8.4s     wall:        3.6s
 Summary of allocated global arrays
-----------------------------------
  No active global arrays



                         GA Statistics for process    0
                         ------------------------------

       create   destroy   get      put      acc     scatter   gather  read&inc
calls: 3020     2916     8.75e+04 1.12e+04 3.64e+04    0        0     8875     
number of processes/call 0.00e+00 0.00e+00 0.00e+00 0.00e+00 0.00e+00
bytes total:             3.31e+07 7.46e+06 1.66e+07 0.00e+00 0.00e+00 7.10e+04
bytes remote:            0.00e+00 0.00e+00 0.00e+00 0.00e+00 0.00e+00 0.00e+00
Max memory consumed for GA by this process: 112632 bytes
MA_summarize_allocated_blocks: starting scan ...
MA_summarize_allocated_blocks: scan completed: 0 heap blocks, 0 stack blocks
MA usage statistics:

	allocation statistics:
					      heap	     stack
					      ----	     -----
	current number of blocks	         0	         0
	maximum number of blocks	        25	        57
	current total bytes		         0	         0
	maximum total bytes		   3322760	  22510552
	maximum total K-bytes		      3323	     22511
	maximum total M-bytes		         4	        23


                                NWChem Input Module
                                -------------------





                                     CITATION
                                     --------
                Please cite the following reference when publishing
                           results obtained with NWChem:

          E. Aprà, E. J. Bylaska, W. A. de Jong, N. Govind, K. Kowalski,
       T. P. Straatsma, M. Valiev, H. J. J. van Dam, Y. Alexeev, J. Anchell,
       V. Anisimov, F. W. Aquino, R. Atta-Fynn, J. Autschbach, N. P. Bauman,
     J. C. Becca, D. E. Bernholdt, K. Bhaskaran-Nair, S. Bogatko, P. Borowski,
        J. Boschen, J. Brabec, A. Bruner, E. Cauët, Y. Chen, G. N. Chuev,
      C. J. Cramer, J. Daily, M. J. O. Deegan, T. H. Dunning Jr., M. Dupuis,
   K. G. Dyall, G. I. Fann, S. A. Fischer, A. Fonari, H. Früchtl, L. Gagliardi,
      J. Garza, N. Gawande, S. Ghosh, K. Glaesemann, A. W. Götz, J. Hammond,
       V. Helms, E. D. Hermes, K. Hirao, S. Hirata, M. Jacquelin, L. Jensen,
   B. G. Johnson, H. Jónsson, R. A. Kendall, M. Klemm, R. Kobayashi, V. Konkov,
      S. Krishnamoorthy, M. Krishnan, Z. Lin, R. D. Lins, R. J. Littlefield,
      A. J. Logsdail, K. Lopata, W. Ma, A. V. Marenich, J. Martin del Campo,
   D. Mejia-Rodriguez, J. E. Moore, J. M. Mullin, T. Nakajima, D. R. Nascimento,
    J. A. Nichols, P. J. Nichols, J. Nieplocha, A. Otero-de-la-Roza, B. Palmer,
    A. Panyala, T. Pirojsirikul, B. Peng, R. Peverati, J. Pittner, L. Pollack,
   R. M. Richard, P. Sadayappan, G. C. Schatz, W. A. Shelton, D. W. Silverstein,
   D. M. A. Smith, T. A. Soares, D. Song, M. Swart, H. L. Taylor, G. S. Thomas,
            V. Tipparaju, D. G. Truhlar, K. Tsemekhman, T. Van Voorhis,
     Á. Vázquez-Mayagoitia, P. Verma, O. Villa, A. Vishnu, K. D. Vogiatzis,
        D. Wang, J. H. Weare, M. J. Williamson, T. L. Windus, K. Woliński,
        A. T. Wong, Q. Wu, C. Yang, Q. Yu, M. Zacharias, Z. Zhang, Y. Zhao,
                                and R. J. Harrison
                        "NWChem: Past, present, and future
                         J. Chem. Phys. 152, 184102 (2020)
                               doi:10.1063/5.0004997

                                      AUTHORS
                                      -------
     E. Apra, E. J. Bylaska, N. Govind, K. Kowalski, M. Valiev, W. A. de Jong,
      T. P. Straatsma, H. J. J. van Dam, D. Wang, T. L. Windus, N. P. Bauman,
       A. Panyala, J. Hammond, J. Autschbach, K. Bhaskaran-Nair, J. Brabec,
    K. Lopata, S. A. Fischer, S. Krishnamoorthy, M. Jacquelin, W. Ma, M. Klemm,
       O. Villa, Y. Chen, V. Anisimov, F. Aquino, S. Hirata, M. T. Hackler,
           Eric Hermes, L. Jensen, J. E. Moore, J. C. Becca, V. Konjkov,
            D. Mejia-Rodriguez, T. Risthaus, M. Malagoli, A. Marenich,
   A. Otero-de-la-Roza, J. Mullin, P. Nichols, R. Peverati, J. Pittner, Y. Zhao,
        P.-D. Fan, A. Fonari, M. J. Williamson, R. J. Harrison, J. R. Rehr,
      M. Dupuis, D. Silverstein, D. M. A. Smith, J. Nieplocha, V. Tipparaju,
      M. Krishnan, B. E. Van Kuiken, A. Vazquez-Mayagoitia, M. Swart, Q. Wu,
   T. Van Voorhis, A. A. Auer, M. Nooijen, L. D. Crosby, E. Brown, G. Cisneros,
     G. I. Fann, H. Fruchtl, J. Garza, K. Hirao, R. A. Kendall, J. A. Nichols,
       K. Tsemekhman, K. Wolinski, J. Anchell, D. E. Bernholdt, P. Borowski,
       T. Clark, D. Clerc, H. Dachsel, M. J. O. Deegan, K. Dyall, D. Elwood,
      E. Glendening, M. Gutowski, A. C. Hess, J. Jaffe, B. G. Johnson, J. Ju,
        R. Kobayashi, R. Kutteh, Z. Lin, R. Littlefield, X. Long, B. Meng,
      T. Nakajima, S. Niu, L. Pollack, M. Rosing, K. Glaesemann, G. Sandrone,
      M. Stave, H. Taylor, G. Thomas, J. H. van Lenthe, A. T. Wong, Z. Zhang.

 Total times  cpu:        8.5s     wall:        3.7s
